<PP_INFO>
Generated using "atomic" code by A. Dal Corso  (Quantum ESPRESSO distributi
Author: D.C.   Generation date: 31Mar2011                                  
Eu                                                                         
    1        The Pseudo was generated with a Scalar-Relativistic Calculation
    0 3.0000000E+00    L component and cutoff radius for Local Potential
nl pn  l   occ               Rcut            Rcut US             E pseu
4F  4  3  7.00      2.40000000000      2.40000000000     -0.65421994621
5D  3  2  0.00      2.60000000000      2.60000000000     -0.52387592611
6P  2  1  0.00      3.60000000000      3.60000000000     -0.39243706809
6S  1  0  1.00      3.00000000000      3.00000000000     -0.62671338226
</PP_INFO>


<PP_HEADER>
   0                   Version Number
  Eu                   Element
   NC                  Norm - Conserving pseudopotential
    T                  Nonlinear Core Correction
 SLA  PW   PBX  PBC    PBE    Exchange-Correlation functional
    9.00000000000      Z valence
  -58.28828371448      Total energy
      0.000      0.000 Suggested cutoff for wfc and rho
    3                  Max angular momentum component
 3351                  Number of points in mesh
    4    3             Number of Wavefunctions, Number of Projectors
 Wavefunctions         nl  l   occ
                       4F  3  7.00
                       5D  2  0.00
                       6P  1  0.00
                       6S  0  1.00
</PP_HEADER>


<PP_MESH>
  <PP_R>
  5.32480361750E-06  5.35149430671E-06  5.37831878355E-06  5.40527771864E-06
  5.43237178595E-06  5.45960166285E-06  5.48696803007E-06  5.51447157177E-06
  5.54211297555E-06  5.56989293245E-06  5.59781213696E-06  5.62587128706E-06
  5.65407108424E-06  5.68241223349E-06  5.71089544334E-06  5.73952142588E-06
  5.76829089675E-06  5.79720457519E-06  5.82626318405E-06  5.85546744979E-06
  5.88481810253E-06  5.91431587602E-06  5.94396150772E-06  5.97375573876E-06
  6.00369931401E-06  6.03379298205E-06  6.06403749524E-06  6.09443360968E-06
  6.12498208527E-06  6.15568368574E-06  6.18653917862E-06  6.21754933530E-06
  6.24871493103E-06  6.28003674497E-06  6.31151556015E-06  6.34315216355E-06
  6.37494734609E-06  6.40690190263E-06  6.43901663207E-06  6.47129233725E-06
  6.50372982508E-06  6.53632990649E-06  6.56909339649E-06  6.60202111417E-06
  6.63511388271E-06  6.66837252946E-06  6.70179788586E-06  6.73539078756E-06
  6.76915207438E-06  6.80308259035E-06  6.83718318374E-06  6.87145470707E-06
  6.90589801712E-06  6.94051397499E-06  6.97530344606E-06  7.01026730009E-06
  7.04540641116E-06  7.08072165776E-06  7.11621392276E-06  7.15188409349E-06
  7.18773306170E-06  7.22376172360E-06  7.25997097992E-06  7.29636173590E-06
  7.33293490130E-06  7.36969139045E-06  7.40663212227E-06  7.44375802028E-06
  7.48107001263E-06  7.51856903212E-06  7.55625601623E-06  7.59413190713E-06
  7.63219765172E-06  7.67045420165E-06  7.70890251334E-06  7.74754354799E-06
  7.78637827163E-06  7.82540765514E-06  7.86463267424E-06  7.90405430958E-06
  7.94367354668E-06  7.98349137603E-06  8.02350879308E-06  8.06372679827E-06
  8.10414639705E-06  8.14476859992E-06  8.18559442242E-06  8.22662488521E-06
  8.26786101405E-06  8.30930383984E-06  8.35095439867E-06  8.39281373179E-06
  8.43488288569E-06  8.47716291210E-06  8.51965486802E-06  8.56235981576E-06
  8.60527882295E-06  8.64841296255E-06  8.69176331292E-06  8.73533095783E-06
  8.77911698647E-06  8.82312249350E-06  8.86734857904E-06  8.91179634876E-06
  8.95646691385E-06  9.00136139108E-06  9.04648090282E-06  9.09182657705E-06
  9.13739954742E-06  9.18320095325E-06  9.22923193958E-06  9.27549365720E-06
  9.32198726263E-06  9.36871391824E-06  9.41567479218E-06  9.46287105848E-06
  9.51030389705E-06  9.55797449372E-06  9.60588404024E-06  9.65403373436E-06
  9.70242477983E-06  9.75105838643E-06  9.79993576999E-06  9.84905815246E-06
  9.89842676190E-06  9.94804283252E-06  9.99790760472E-06  1.00480223251E-05
  1.00983882466E-05  1.01490066284E-05  1.01998787358E-05  1.02510058407E-05
  1.03023892213E-05  1.03540301622E-05  1.04059299544E-05  1.04580898953E-05
  1.05105112891E-05  1.05631954462E-05  1.06161436837E-05  1.06693573253E-05
  1.07228377015E-05  1.07765861491E-05  1.08306040120E-05  1.08848926405E-05
  1.09394533919E-05  1.09942876303E-05  1.10493967263E-05  1.11047820579E-05
  1.11604450096E-05  1.12163869730E-05  1.12726093467E-05  1.13291135362E-05
  1.13859009541E-05  1.14429730202E-05  1.15003311611E-05  1.15579768109E-05
  1.16159114108E-05  1.16741364090E-05  1.17326532613E-05  1.17914634305E-05
  1.18505683869E-05  1.19099696082E-05  1.19696685793E-05  1.20296667927E-05
  1.20899657484E-05  1.21505669539E-05  1.22114719242E-05  1.22726821820E-05
  1.23341992574E-05  1.23960246885E-05  1.24581600208E-05  1.25206068078E-05
  1.25833666106E-05  1.26464409982E-05  1.27098315475E-05  1.27735398432E-05
  1.28375674782E-05  1.29019160529E-05  1.29665871763E-05  1.30315824650E-05
  1.30969035439E-05  1.31625520461E-05  1.32285296128E-05  1.32948378934E-05
  1.33614785457E-05  1.34284532356E-05  1.34957636376E-05  1.35634114343E-05
  1.36313983171E-05  1.36997259855E-05  1.37683961477E-05  1.38374105206E-05
  1.39067708295E-05  1.39764788084E-05  1.40465361999E-05  1.41169447556E-05
  1.41877062357E-05  1.42588224092E-05  1.43302950539E-05  1.44021259568E-05
  1.44743169136E-05  1.45468697290E-05  1.46197862170E-05  1.46930682003E-05
  1.47667175112E-05  1.48407359907E-05  1.49151254895E-05  1.49898878671E-05
  1.50650249927E-05  1.51405387447E-05  1.52164310110E-05  1.52927036889E-05
  1.53693586851E-05  1.54463979161E-05  1.55238233079E-05  1.56016367960E-05
  1.56798403259E-05  1.57584358526E-05  1.58374253410E-05  1.59168107659E-05
  1.59965941119E-05  1.60767773735E-05  1.61573625555E-05  1.62383516723E-05
  1.63197467488E-05  1.64015498198E-05  1.64837629304E-05  1.65663881359E-05
  1.66494275020E-05  1.67328831047E-05  1.68167570303E-05  1.69010513757E-05
  1.69857682482E-05  1.70709097659E-05  1.71564780572E-05  1.72424752613E-05
  1.73289035282E-05  1.74157650187E-05  1.75030619041E-05  1.75907963670E-05
  1.76789706007E-05  1.77675868096E-05  1.78566472091E-05  1.79461540257E-05
  1.80361094971E-05  1.81265158722E-05  1.82173754111E-05  1.83086903854E-05
  1.84004630779E-05  1.84926957829E-05  1.85853908062E-05  1.86785504653E-05
  1.87721770891E-05  1.88662730184E-05  1.89608406054E-05  1.90558822145E-05
  1.91514002216E-05  1.92473970147E-05  1.93438749937E-05  1.94408365706E-05
  1.95382841694E-05  1.96362202264E-05  1.97346471899E-05  1.98335675206E-05
  1.99329836915E-05  2.00328981880E-05  2.01333135081E-05  2.02342321620E-05
  2.03356566728E-05  2.04375895760E-05  2.05400334201E-05  2.06429907661E-05
  2.07464641879E-05  2.08504562724E-05  2.09549696194E-05  2.10600068417E-05
  2.11655705653E-05  2.12716634293E-05  2.13782880859E-05  2.14854472009E-05
  2.15931434531E-05  2.17013795351E-05  2.18101581527E-05  2.19194820254E-05
  2.20293538863E-05  2.21397764822E-05  2.22507525736E-05  2.23622849350E-05
  2.24743763547E-05  2.25870296350E-05  2.27002475922E-05  2.28140330568E-05
  2.29283888733E-05  2.30433179008E-05  2.31588230125E-05  2.32749070959E-05
  2.33915730532E-05  2.35088238011E-05  2.36266622708E-05  2.37450914083E-05
  2.38641141742E-05  2.39837335443E-05  2.41039525090E-05  2.42247740738E-05
  2.43462012591E-05  2.44682371008E-05  2.45908846496E-05  2.47141469719E-05
  2.48380271491E-05  2.49625282783E-05  2.50876534720E-05  2.52134058583E-05
  2.53397885811E-05  2.54668048000E-05  2.55944576903E-05  2.57227504433E-05
  2.58516862665E-05  2.59812683831E-05  2.61115000329E-05  2.62423844715E-05
  2.63739249710E-05  2.65061248201E-05  2.66389873236E-05  2.67725158033E-05
  2.69067135972E-05  2.70415840604E-05  2.71771305645E-05  2.73133564984E-05
  2.74502652676E-05  2.75878602948E-05  2.77261450200E-05  2.78651229003E-05
  2.80047974101E-05  2.81451720413E-05  2.82862503032E-05  2.84280357229E-05
  2.85705318449E-05  2.87137422318E-05  2.88576704637E-05  2.90023201388E-05
  2.91476948735E-05  2.92937983020E-05  2.94406340771E-05  2.95882058695E-05
  2.97365173686E-05  2.98855722822E-05  3.00353743367E-05  3.01859272770E-05
  3.03372348672E-05  3.04893008898E-05  3.06421291465E-05  3.07957234580E-05
  3.09500876642E-05  3.11052256242E-05  3.12611412165E-05  3.14178383389E-05
  3.15753209090E-05  3.17335928637E-05  3.18926581598E-05  3.20525207741E-05
  3.22131847031E-05  3.23746539634E-05  3.25369325917E-05  3.27000246450E-05
  3.28639342006E-05  3.30286653563E-05  3.31942222304E-05  3.33606089617E-05
  3.35278297100E-05  3.36958886558E-05  3.38647900006E-05  3.40345379669E-05
  3.42051367984E-05  3.43765907601E-05  3.45489041383E-05  3.47220812410E-05
  3.48961263975E-05  3.50710439590E-05  3.52468382984E-05  3.54235138106E-05
  3.56010749125E-05  3.57795260431E-05  3.59588716637E-05  3.61391162580E-05
  3.63202643321E-05  3.65023204147E-05  3.66852890572E-05  3.68691748338E-05
  3.70539823417E-05  3.72397162011E-05  3.74263810554E-05  3.76139815711E-05
  3.78025224384E-05  3.79920083706E-05  3.81824441051E-05  3.83738344026E-05
  3.85661840480E-05  3.87594978500E-05  3.89537806415E-05  3.91490372795E-05
  3.93452726455E-05  3.95424916454E-05  3.97406992096E-05  3.99399002933E-05
  4.01400998767E-05  4.03413029646E-05  4.05435145872E-05  4.07467397998E-05
  4.09509836830E-05  4.11562513429E-05  4.13625479112E-05  4.15698785454E-05
  4.17782484288E-05  4.19876627705E-05  4.21981268060E-05  4.24096457968E-05
  4.26222250310E-05  4.28358698231E-05  4.30505855141E-05  4.32663774720E-05
  4.34832510916E-05  4.37012117947E-05  4.39202650304E-05  4.41404162750E-05
  4.43616710323E-05  4.45840348337E-05  4.48075132383E-05  4.50321118331E-05
  4.52578362330E-05  4.54846920812E-05  4.57126850490E-05  4.59418208364E-05
  4.61721051716E-05  4.64035438119E-05  4.66361425432E-05  4.68699071805E-05
  4.71048435680E-05  4.73409575789E-05  4.75782551163E-05  4.78167421125E-05
  4.80564245298E-05  4.82973083602E-05  4.85393996258E-05  4.87827043789E-05
  4.90272287022E-05  4.92729787087E-05  4.95199605423E-05  4.97681803775E-05
  5.00176444198E-05  5.02683589057E-05  5.05203301033E-05  5.07735643118E-05
  5.10280678620E-05  5.12838471166E-05  5.15409084700E-05  5.17992583488E-05
  5.20589032118E-05  5.23198495501E-05  5.25821038873E-05  5.28456727799E-05
  5.31105628170E-05  5.33767806210E-05  5.36443328472E-05  5.39132261846E-05
  5.41834673555E-05  5.44550631158E-05  5.47280202556E-05  5.50023455987E-05
  5.52780460034E-05  5.55551283620E-05  5.58335996018E-05  5.61134666844E-05
  5.63947366067E-05  5.66774164003E-05  5.69615131323E-05  5.72470339050E-05
  5.75339858566E-05  5.78223761608E-05  5.81122120275E-05  5.84035007024E-05
  5.86962494680E-05  5.89904656428E-05  5.92861565824E-05  5.95833296789E-05
  5.98819923618E-05  6.01821520976E-05  6.04838163903E-05  6.07869927817E-05
  6.10916888510E-05  6.13979122157E-05  6.17056705314E-05  6.20149714920E-05
  6.23258228302E-05  6.26382323173E-05  6.29522077634E-05  6.32677570179E-05
  6.35848879697E-05  6.39036085470E-05  6.42239267178E-05  6.45458504902E-05
  6.48693879121E-05  6.51945470722E-05  6.55213360993E-05  6.58497631632E-05
  6.61798364747E-05  6.65115642855E-05  6.68449548888E-05  6.71800166196E-05
  6.75167578542E-05  6.78551870113E-05  6.81953125516E-05  6.85371429783E-05
  6.88806868371E-05  6.92259527167E-05  6.95729492487E-05  6.99216851081E-05
  7.02721690132E-05  7.06244097262E-05  7.09784160531E-05  7.13341968442E-05
  7.16917609939E-05  7.20511174413E-05  7.24122751704E-05  7.27752432102E-05
  7.31400306348E-05  7.35066465640E-05  7.38751001632E-05  7.42454006438E-05
  7.46175572632E-05  7.49915793255E-05  7.53674761811E-05  7.57452572276E-05
  7.61249319095E-05  7.65065097186E-05  7.68900001944E-05  7.72754129243E-05
  7.76627575435E-05  7.80520437357E-05  7.84432812330E-05  7.88364798165E-05
  7.92316493160E-05  7.96287996110E-05  8.00279406300E-05  8.04290823518E-05
  8.08322348047E-05  8.12374080678E-05  8.16446122703E-05  8.20538575924E-05
  8.24651542652E-05  8.28785125711E-05  8.32939428441E-05  8.37114554701E-05
  8.41310608868E-05  8.45527695845E-05  8.49765921057E-05  8.54025390462E-05
  8.58306210546E-05  8.62608488330E-05  8.66932331372E-05  8.71277847766E-05
  8.75645146153E-05  8.80034335713E-05  8.84445526178E-05  8.88878827827E-05
  8.93334351493E-05  8.97812208564E-05  9.02312510987E-05  9.06835371270E-05
  9.11380902485E-05  9.15949218269E-05  9.20540432832E-05  9.25154660954E-05
  9.29792017990E-05  9.34452619875E-05  9.39136583124E-05  9.43844024837E-05
  9.48575062699E-05  9.53329814988E-05  9.58108400571E-05  9.62910938915E-05
  9.67737550082E-05  9.72588354738E-05  9.77463474154E-05  9.82363030207E-05
  9.87287145388E-05  9.92235942798E-05  9.97209546159E-05  1.00220807981E-04
  1.00723166872E-04  1.01228043847E-04  1.01735451528E-04  1.02245402601E-04
  1.02757909814E-04  1.03272985981E-04  1.03790643977E-04  1.04310896745E-04
  1.04833757291E-04  1.05359238686E-04  1.05887354068E-04  1.06418116639E-04
  1.06951539668E-04  1.07487636492E-04  1.08026420512E-04  1.08567905198E-04
  1.09112104087E-04  1.09659030785E-04  1.10208698964E-04  1.10761122367E-04
  1.11316314803E-04  1.11874290153E-04  1.12435062366E-04  1.12998645461E-04
  1.13565053529E-04  1.14134300729E-04  1.14706401292E-04  1.15281369521E-04
  1.15859219790E-04  1.16439966546E-04  1.17023624307E-04  1.17610207665E-04
  1.18199731285E-04  1.18792209903E-04  1.19387658333E-04  1.19986091461E-04
  1.20587524247E-04  1.21191971728E-04  1.21799449014E-04  1.22409971293E-04
  1.23023553828E-04  1.23640211957E-04  1.24259961099E-04  1.24882816746E-04
  1.25508794470E-04  1.26137909920E-04  1.26770178825E-04  1.27405616990E-04
  1.28044240303E-04  1.28686064729E-04  1.29331106312E-04  1.29979381181E-04
  1.30630905540E-04  1.31285695679E-04  1.31943767967E-04  1.32605138856E-04
  1.33269824881E-04  1.33937842658E-04  1.34609208888E-04  1.35283940356E-04
  1.35962053929E-04  1.36643566560E-04  1.37328495288E-04  1.38016857235E-04
  1.38708669611E-04  1.39403949710E-04  1.40102714916E-04  1.40804982697E-04
  1.41510770610E-04  1.42220096300E-04  1.42932977499E-04  1.43649432030E-04
  1.44369477805E-04  1.45093132824E-04  1.45820415178E-04  1.46551343051E-04
  1.47285934715E-04  1.48024208535E-04  1.48766182968E-04  1.49511876564E-04
  1.50261307964E-04  1.51014495904E-04  1.51771459215E-04  1.52532216820E-04
  1.53296787739E-04  1.54065191085E-04  1.54837446069E-04  1.55613571997E-04
  1.56393588273E-04  1.57177514396E-04  1.57965369966E-04  1.58757174678E-04
  1.59552948328E-04  1.60352710809E-04  1.61156482117E-04  1.61964282345E-04
  1.62776131689E-04  1.63592050444E-04  1.64412059010E-04  1.65236177885E-04
  1.66064427673E-04  1.66896829081E-04  1.67733402918E-04  1.68574170099E-04
  1.69419151643E-04  1.70268368675E-04  1.71121842424E-04  1.71979594229E-04
  1.72841645533E-04  1.73708017886E-04  1.74578732949E-04  1.75453812490E-04
  1.76333278385E-04  1.77217152621E-04  1.78105457295E-04  1.78998214615E-04
  1.79895446899E-04  1.80797176580E-04  1.81703426199E-04  1.82614218413E-04
  1.83529575992E-04  1.84449521820E-04  1.85374078895E-04  1.86303270332E-04
  1.87237119361E-04  1.88175649328E-04  1.89118883695E-04  1.90066846045E-04
  1.91019560075E-04  1.91977049604E-04  1.92939338570E-04  1.93906451029E-04
  1.94878411160E-04  1.95855243261E-04  1.96836971753E-04  1.97823621180E-04
  1.98815216208E-04  1.99811781626E-04  2.00813342349E-04  2.01819923417E-04
  2.02831549993E-04  2.03848247368E-04  2.04870040960E-04  2.05896956314E-04
  2.06929019102E-04  2.07966255127E-04  2.09008690319E-04  2.10056350739E-04
  2.11109262578E-04  2.12167452161E-04  2.13230945940E-04  2.14299770505E-04
  2.15373952575E-04  2.16453519004E-04  2.17538496784E-04  2.18628913036E-04
  2.19724795023E-04  2.20826170142E-04  2.21933065926E-04  2.23045510048E-04
  2.24163530320E-04  2.25287154692E-04  2.26416411254E-04  2.27551328238E-04
  2.28691934018E-04  2.29838257107E-04  2.30990326165E-04  2.32148169994E-04
  2.33311817538E-04  2.34481297890E-04  2.35656640287E-04  2.36837874112E-04
  2.38025028896E-04  2.39218134319E-04  2.40417220207E-04  2.41622316538E-04
  2.42833453440E-04  2.44050661191E-04  2.45273970221E-04  2.46503411113E-04
  2.47739014603E-04  2.48980811581E-04  2.50228833093E-04  2.51483110338E-04
  2.52743674675E-04  2.54010557616E-04  2.55283790835E-04  2.56563406161E-04
  2.57849435587E-04  2.59141911261E-04  2.60440865497E-04  2.61746330768E-04
  2.63058339710E-04  2.64376925126E-04  2.65702119977E-04  2.67033957396E-04
  2.68372470678E-04  2.69717693285E-04  2.71069658849E-04  2.72428401168E-04
  2.73793954212E-04  2.75166352119E-04  2.76545629198E-04  2.77931819933E-04
  2.79324958978E-04  2.80725081162E-04  2.82132221487E-04  2.83546415132E-04
  2.84967697452E-04  2.86396103980E-04  2.87831670425E-04  2.89274432677E-04
  2.90724426805E-04  2.92181689059E-04  2.93646255870E-04  2.95118163853E-04
  2.96597449805E-04  2.98084150709E-04  2.99578303733E-04  3.01079946229E-04
  3.02589115740E-04  3.04105849994E-04  3.05630186911E-04  3.07162164598E-04
  3.08701821355E-04  3.10249195674E-04  3.11804326239E-04  3.13367251928E-04
  3.14938011815E-04  3.16516645169E-04  3.18103191455E-04  3.19697690338E-04
  3.21300181679E-04  3.22910705542E-04  3.24529302189E-04  3.26156012086E-04
  3.27790875900E-04  3.29433934503E-04  3.31085228972E-04  3.32744800588E-04
  3.34412690842E-04  3.36088941430E-04  3.37773594260E-04  3.39466691447E-04
  3.41168275319E-04  3.42878388415E-04  3.44597073490E-04  3.46324373509E-04
  3.48060331655E-04  3.49804991328E-04  3.51558396143E-04  3.53320589937E-04
  3.55091616765E-04  3.56871520901E-04  3.58660346843E-04  3.60458139313E-04
  3.62264943255E-04  3.64080803840E-04  3.65905766464E-04  3.67739876751E-04
  3.69583180554E-04  3.71435723956E-04  3.73297553270E-04  3.75168715043E-04
  3.77049256052E-04  3.78939223313E-04  3.80838664075E-04  3.82747625822E-04
  3.84666156281E-04  3.86594303413E-04  3.88532115423E-04  3.90479640756E-04
  3.92436928101E-04  3.94404026389E-04  3.96380984798E-04  3.98367852753E-04
  4.00364679924E-04  4.02371516234E-04  4.04388411852E-04  4.06415417202E-04
  4.08452582958E-04  4.10499960050E-04  4.12557599663E-04  4.14625553237E-04
  4.16703872471E-04  4.18792609324E-04  4.20891816014E-04  4.23001545022E-04
  4.25121849089E-04  4.27252781226E-04  4.29394394704E-04  4.31546743064E-04
  4.33709880116E-04  4.35883859937E-04  4.38068736877E-04  4.40264565558E-04
  4.42471400877E-04  4.44689298004E-04  4.46918312386E-04  4.49158499749E-04
  4.51409916098E-04  4.53672617719E-04  4.55946661178E-04  4.58232103328E-04
  4.60529001305E-04  4.62837412530E-04  4.65157394715E-04  4.67489005859E-04
  4.69832304252E-04  4.72187348478E-04  4.74554197412E-04  4.76932910225E-04
  4.79323546386E-04  4.81726165661E-04  4.84140828115E-04  4.86567594114E-04
  4.89006524329E-04  4.91457679733E-04  4.93921121604E-04  4.96396911529E-04
  4.98885111403E-04  5.01385783430E-04  5.03898990128E-04  5.06424794327E-04
  5.08963259172E-04  5.11514448126E-04  5.14078424967E-04  5.16655253795E-04
  5.19244999032E-04  5.21847725421E-04  5.24463498030E-04  5.27092382254E-04
  5.29734443815E-04  5.32389748764E-04  5.35058363485E-04  5.37740354693E-04
  5.40435789438E-04  5.43144735106E-04  5.45867259420E-04  5.48603430445E-04
  5.51353316583E-04  5.54116986583E-04  5.56894509537E-04  5.59685954883E-04
  5.62491392406E-04  5.65310892244E-04  5.68144524883E-04  5.70992361166E-04
  5.73854472286E-04  5.76730929799E-04  5.79621805615E-04  5.82527172006E-04
  5.85447101607E-04  5.88381667416E-04  5.91330942797E-04  5.94295001483E-04
  5.97273917574E-04  6.00267765545E-04  6.03276620241E-04  6.06300556884E-04
  6.09339651072E-04  6.12393978784E-04  6.15463616377E-04  6.18548640592E-04
  6.21649128555E-04  6.24765157779E-04  6.27896806165E-04  6.31044152004E-04
  6.34207273979E-04  6.37386251169E-04  6.40581163048E-04  6.43792089490E-04
  6.47019110768E-04  6.50262307557E-04  6.53521760938E-04  6.56797552396E-04
  6.60089763828E-04  6.63398477538E-04  6.66723776245E-04  6.70065743081E-04
  6.73424461595E-04  6.76800015756E-04  6.80192489953E-04  6.83601968997E-04
  6.87028538126E-04  6.90472283005E-04  6.93933289726E-04  6.97411644816E-04
  7.00907435233E-04  7.04420748373E-04  7.07951672068E-04  7.11500294592E-04
  7.15066704660E-04  7.18650991433E-04  7.22253244518E-04  7.25873553972E-04
  7.29512010302E-04  7.33168704471E-04  7.36843727896E-04  7.40537172452E-04
  7.44249130476E-04  7.47979694767E-04  7.51728958590E-04  7.55497015675E-04
  7.59283960225E-04  7.63089886914E-04  7.66914890890E-04  7.70759067778E-04
  7.74622513683E-04  7.78505325191E-04  7.82407599372E-04  7.86329433785E-04
  7.90270926474E-04  7.94232175978E-04  7.98213281327E-04  8.02214342050E-04
  8.06235458173E-04  8.10276730225E-04  8.14338259237E-04  8.18420146748E-04
  8.22522494805E-04  8.26645405968E-04  8.30788983308E-04  8.34953330417E-04
  8.39138551402E-04  8.43344750895E-04  8.47572034051E-04  8.51820506551E-04
  8.56090274609E-04  8.60381444968E-04  8.64694124908E-04  8.69028422246E-04
  8.73384445340E-04  8.77762303090E-04  8.82162104944E-04  8.86583960897E-04
  8.91027981494E-04  8.95494277838E-04  8.99982961585E-04  9.04494144953E-04
  9.09027940722E-04  9.13584462236E-04  9.18163823410E-04  9.22766138727E-04
  9.27391523246E-04  9.32040092601E-04  9.36711963007E-04  9.41407251261E-04
  9.46126074745E-04  9.50868551430E-04  9.55634799879E-04  9.60424939247E-04
  9.65239089289E-04  9.70077370359E-04  9.74939903413E-04  9.79826810015E-04
  9.84738212339E-04  9.89674233169E-04  9.94634995907E-04  9.99620624572E-04
  1.00463124380E-03  1.00966697887E-03  1.01472795566E-03  1.01981430071E-03
  1.02492614116E-03  1.03006360482E-03  1.03522682013E-03  1.04041591616E-03
  1.04563102264E-03  1.05087226995E-03  1.05613978913E-03  1.06143371185E-03
  1.06675417047E-03  1.07210129800E-03  1.07747522812E-03  1.08287609518E-03
  1.08830403419E-03  1.09375918087E-03  1.09924167158E-03  1.10475164339E-03
  1.11028923404E-03  1.11585458199E-03  1.12144782636E-03  1.12706910698E-03
  1.13271856439E-03  1.13839633982E-03  1.14410257522E-03  1.14983741324E-03
  1.15560099726E-03  1.16139347136E-03  1.16721498037E-03  1.17306566980E-03
  1.17894568594E-03  1.18485517578E-03  1.19079428707E-03  1.19676316827E-03
  1.20276196862E-03  1.20879083807E-03  1.21484992736E-03  1.22093938797E-03
  1.22705937212E-03  1.23321003281E-03  1.23939152383E-03  1.24560399969E-03
  1.25184761572E-03  1.25812252801E-03  1.26442889343E-03  1.27076686963E-03
  1.27713661507E-03  1.28353828900E-03  1.28997205144E-03  1.29643806326E-03
  1.30293648609E-03  1.30946748241E-03  1.31603121548E-03  1.32262784940E-03
  1.32925754908E-03  1.33592048027E-03  1.34261680955E-03  1.34934670431E-03
  1.35611033281E-03  1.36290786415E-03  1.36973946824E-03  1.37660531590E-03
  1.38350557876E-03  1.39044042933E-03  1.39741004099E-03  1.40441458797E-03
  1.41145424539E-03  1.41852918923E-03  1.42563959638E-03  1.43278564460E-03
  1.43996751253E-03  1.44718537972E-03  1.45443942663E-03  1.46172983459E-03
  1.46905678588E-03  1.47642046366E-03  1.48382105203E-03  1.49125873601E-03
  1.49873370153E-03  1.50624613547E-03  1.51379622564E-03  1.52138416080E-03
  1.52901013064E-03  1.53667432582E-03  1.54437693793E-03  1.55211815955E-03
  1.55989818420E-03  1.56771720638E-03  1.57557542158E-03  1.58347302625E-03
  1.59141021782E-03  1.59938719473E-03  1.60740415641E-03  1.61546130327E-03
  1.62355883675E-03  1.63169695929E-03  1.63987587433E-03  1.64809578636E-03
  1.65635690087E-03  1.66465942439E-03  1.67300356447E-03  1.68138952974E-03
  1.68981752983E-03  1.69828777545E-03  1.70680047835E-03  1.71535585135E-03
  1.72395410833E-03  1.73259546426E-03  1.74128013517E-03  1.75000833817E-03
  1.75878029147E-03  1.76759621436E-03  1.77645632726E-03  1.78536085166E-03
  1.79431001017E-03  1.80330402652E-03  1.81234312557E-03  1.82142753329E-03
  1.83055747679E-03  1.83973318433E-03  1.84895488529E-03  1.85822281022E-03
  1.86753719082E-03  1.87689825995E-03  1.88630625163E-03  1.89576140106E-03
  1.90526394463E-03  1.91481411989E-03  1.92441216561E-03  1.93405832173E-03
  1.94375282941E-03  1.95349593102E-03  1.96328787012E-03  1.97312889152E-03
  1.98301924125E-03  1.99295916656E-03  2.00294891595E-03  2.01298873917E-03
  2.02307888722E-03  2.03321961234E-03  2.04341116806E-03  2.05365380916E-03
  2.06394779172E-03  2.07429337308E-03  2.08469081188E-03  2.09514036806E-03
  2.10564230286E-03  2.11619687882E-03  2.12680435982E-03  2.13746501104E-03
  2.14817909899E-03  2.15894689154E-03  2.16976865787E-03  2.18064466852E-03
  2.19157519541E-03  2.20256051179E-03  2.21360089230E-03  2.22469661295E-03
  2.23584795113E-03  2.24705518562E-03  2.25831859661E-03  2.26963846568E-03
  2.28101507584E-03  2.29244871148E-03  2.30393965847E-03  2.31548820407E-03
  2.32709463699E-03  2.33875924740E-03  2.35048232691E-03  2.36226416861E-03
  2.37410506703E-03  2.38600531820E-03  2.39796521962E-03  2.40998507031E-03
  2.42206517074E-03  2.43420582294E-03  2.44640733040E-03  2.45866999817E-03
  2.47099413283E-03  2.48338004246E-03  2.49582803672E-03  2.50833842682E-03
  2.52091152551E-03  2.53354764711E-03  2.54624710754E-03  2.55901022428E-03
  2.57183731641E-03  2.58472870461E-03  2.59768471115E-03  2.61070565995E-03
  2.62379187653E-03  2.63694368804E-03  2.65016142329E-03  2.66344541270E-03
  2.67679598839E-03  2.69021348412E-03  2.70369823532E-03  2.71725057913E-03
  2.73087085433E-03  2.74455940146E-03  2.75831656271E-03  2.77214268201E-03
  2.78603810503E-03  2.80000317915E-03  2.81403825349E-03  2.82814367893E-03
  2.84231980812E-03  2.85656699545E-03  2.87088559710E-03  2.88527597104E-03
  2.89973847703E-03  2.91427347663E-03  2.92888133322E-03  2.94356241200E-03
  2.95831707999E-03  2.97314570606E-03  2.98804866093E-03  3.00302631717E-03
  3.01807904923E-03  3.03320723342E-03  3.04841124795E-03  3.06369147292E-03
  3.07904829033E-03  3.09448208411E-03  3.10999324011E-03  3.12558214610E-03
  3.14124919180E-03  3.15699476890E-03  3.17281927103E-03  3.18872309381E-03
  3.20470663484E-03  3.22077029369E-03  3.23691447197E-03  3.25313957328E-03
  3.26944600325E-03  3.28583416954E-03  3.30230448186E-03  3.31885735196E-03
  3.33549319366E-03  3.35221242287E-03  3.36901545757E-03  3.38590271782E-03
  3.40287462583E-03  3.41993160587E-03  3.43707408438E-03  3.45430248992E-03
  3.47161725321E-03  3.48901880711E-03  3.50650758666E-03  3.52408402908E-03
  3.54174857378E-03  3.55950166239E-03  3.57734373872E-03  3.59527524883E-03
  3.61329664101E-03  3.63140836580E-03  3.64961087598E-03  3.66790462662E-03
  3.68629007508E-03  3.70476768097E-03  3.72333790625E-03  3.74200121517E-03
  3.76075807432E-03  3.77960895261E-03  3.79855432133E-03  3.81759465410E-03
  3.83673042694E-03  3.85596211823E-03  3.87529020878E-03  3.89471518179E-03
  3.91423752288E-03  3.93385772011E-03  3.95357626399E-03  3.97339364749E-03
  3.99331036603E-03  4.01332691754E-03  4.03344380243E-03  4.05366152362E-03
  4.07398058656E-03  4.09440149924E-03  4.11492477216E-03  4.13555091841E-03
  4.15628045366E-03  4.17711389613E-03  4.19805176666E-03  4.21909458871E-03
  4.24024288835E-03  4.26149719427E-03  4.28285803785E-03  4.30432595310E-03
  4.32590147673E-03  4.34758514812E-03  4.36937750936E-03  4.39127910527E-03
  4.41329048338E-03  4.43541219399E-03  4.45764479013E-03  4.47998882763E-03
  4.50244486508E-03  4.52501346388E-03  4.54769518826E-03  4.57049060525E-03
  4.59340028475E-03  4.61642479949E-03  4.63956472509E-03  4.66282064006E-03
  4.68619312578E-03  4.70968276657E-03  4.73329014968E-03  4.75701586529E-03
  4.78086050654E-03  4.80482466956E-03  4.82890895344E-03  4.85311396030E-03
  4.87744029526E-03  4.90188856648E-03  4.92645938517E-03  4.95115336560E-03
  4.97597112512E-03  5.00091328418E-03  5.02598046633E-03  5.05117329826E-03
  5.07649240978E-03  5.10193843388E-03  5.12751200670E-03  5.15321376759E-03
  5.17904435910E-03  5.20500442698E-03  5.23109462024E-03  5.25731559114E-03
  5.28366799521E-03  5.31015249125E-03  5.33676974138E-03  5.36352041103E-03
  5.39040516897E-03  5.41742468732E-03  5.44457964157E-03  5.47187071059E-03
  5.49929857667E-03  5.52686392550E-03  5.55456744621E-03  5.58240983140E-03
  5.61039177712E-03  5.63851398294E-03  5.66677715189E-03  5.69518199057E-03
  5.72372920910E-03  5.75241952115E-03  5.78125364399E-03  5.81023229848E-03
  5.83935620907E-03  5.86862610387E-03  5.89804271464E-03  5.92760677677E-03
  5.95731902939E-03  5.98718021529E-03  6.01719108101E-03  6.04735237681E-03
  6.07766485675E-03  6.10812927862E-03  6.13874640404E-03  6.16951699844E-03
  6.20044183109E-03  6.23152167510E-03  6.26275730749E-03  6.29414950913E-03
  6.32569906483E-03  6.35740676335E-03  6.38927339736E-03  6.42129976354E-03
  6.45348666255E-03  6.48583489906E-03  6.51834528178E-03  6.55101862348E-03
  6.58385574098E-03  6.61685745521E-03  6.65002459123E-03  6.68335797821E-03
  6.71685844949E-03  6.75052684258E-03  6.78436399919E-03  6.81837076525E-03
  6.85254799094E-03  6.88689653068E-03  6.92141724320E-03  6.95611099151E-03
  6.99097864295E-03  7.02602106923E-03  7.06123914640E-03  7.09663375491E-03
  7.13220577964E-03  7.16795610988E-03  7.20388563940E-03  7.23999526644E-03
  7.27628589373E-03  7.31275842856E-03  7.34941378272E-03  7.38625287261E-03
  7.42327661920E-03  7.46048594810E-03  7.49788178954E-03  7.53546507841E-03
  7.57323675430E-03  7.61119776151E-03  7.64934904905E-03  7.68769157072E-03