<UPF version="2.0.1">
  <PP_INFO>
    Generated using Fritz-Haber code, data in Abinit PP tables
    Author: Converted from Abinit PP tables by P. Giannozzi
    Generation date: Converted June 2011
    Pseudopotential type: SL
    Element:  O
    Functional: PBE

    Suggested minimum cutoff for wavefunctions:   0. Ry
    Suggested minimum cutoff for charge density:   0. Ry
    The Pseudo was generated with a Scalar-Relativistic Calculation
    L component and cutoff radius for Local Potential:  2   0.0000

    Valence configuration: 
    nl pn  l   occ       Rcut    Rcut US       E pseu
    2s  2  0  2.00      0.000      0.000     0.000000
    2p  2  1  4.00      0.000      0.000     0.000000
    3d  3  2  0.00      0.000      0.000     0.000000
    4f  4  3  0.00      0.000      0.000     0.000000

    Generation configuration: 2s2 2p4 3d0 4f0
    Comment:
    oxygen fhi98PP Trouiller-Martins, GGA Perdew/Burke/Ernzerhof (1996), l=2 local
  </PP_INFO>
  <!--                               -->
  <!-- END OF HUMAN READABLE SECTION -->
  <!--                               -->
  <PP_HEADER generated="Generated using Fritz-Haber code, data in Abinit PP tables"
    Generation date: 
             author="Converted from Abinit tables by P. Giannozzi"
             date="Converted June 2011"
             comment="oxygen fhi98PP Trouiller-Martins, GGA Perdew/Burke/Ernzerhof (1996), l=2 loc"
             element=" O"
             pseudo_type="SL"
             relativistic="scalar"
             is_ultrasoft="F"
             is_paw="F"
             is_coulomb="F"
             has_so="F"
             has_wfc="F"
             has_gipaw="F"
             paw_as_gipaw="F"
             core_correction="F"
             functional="PBE"
             z_valence="6.000000000000000E+000"
             total_psenergy="0.000000000000000E+000"
             wfc_cutoff="0.000000000000000E+000"
             rho_cutoff="0.000000000000000E+000"
             l_max="3"
             l_max_rho="0"
             l_local="2"
             mesh_size="473"
             number_of_wfc="4"
             number_of_proj="3"/>
  <PP_MESH dx="2.439988682353512E-002" mesh="473" xmin="-5.075173815233827E+000" rmax="7.842409574286100E+001"
zmesh="8.000000000000000E+000">
    <PP_R type="real" size="473" columns="4">
 7.812500000000000E-004  8.005468750000000E-004  8.203203828125000E-004  8.405822962679700E-004 
 8.613446789857900E-004  8.826198925567400E-004  9.044206039028900E-004  9.267597928192900E-004 
 9.496507597019300E-004  9.731071334665600E-004  9.971428796631901E-004  1.021772308790900E-003 
 1.047010084818000E-003  1.072871233913000E-003  1.099371153390700E-003  1.126525620879400E-003 
 1.154350803715100E-003  1.182863268566900E-003  1.212079991300500E-003  1.242018367085600E-003 
 1.272696220752600E-003  1.304131817405200E-003  1.336343873295100E-003  1.369351566965500E-003 
 1.403174550669600E-003  1.437832962071100E-003  1.473347436234300E-003  1.509739117909200E-003 
 1.547029674121600E-003  1.585241307072400E-003  1.624396767357100E-003  1.664519367510800E-003 
 1.705632995888300E-003  1.747762130886800E-003  1.790931855519700E-003  1.835167872351000E-003 
 1.880496518798100E-003  1.926944782812400E-003  1.974540318947900E-003  2.023311464825900E-003 
 2.073287258007100E-003  2.124497453279900E-003  2.176972540375900E-003  2.230743762123100E-003 
 2.285843133047600E-003  2.342303458433900E-003  2.400158353857200E-003  2.459442265197500E-003 
 2.520190489147800E-003  2.582439194229800E-003  2.646225442327300E-003  2.711587210752700E-003 
 2.778563414858300E-003  2.847193931205300E-003  2.917519621306100E-003  2.989582355952400E-003 
 3.063425040144400E-003  3.139091638636000E-003  3.216627202110300E-003  3.296077894002400E-003 
 3.377491017984200E-003  3.460915046128500E-003  3.546399647767800E-003  3.633995719067700E-003 
 3.723755413328700E-003  3.815732172037900E-003  3.909980756687200E-003  4.006557281377400E-003 
 4.105519246227400E-003  4.206925571609200E-003  4.310836633228000E-003  4.417314298068700E-003 
 4.526421961231000E-003  4.638224583673400E-003  4.752788730890200E-003  4.870182612543100E-003 
 4.990476123073000E-003  5.113740883312900E-003  5.240050283130700E-003  5.369479525124000E-003 
 5.502105669394600E-003  5.638007679428600E-003  5.777266469110500E-003  5.919964950897500E-003 
 6.066188085184700E-003  6.216022930888800E-003  6.369558697281700E-003  6.526886797104600E-003 
 6.688100900993100E-003  6.853296993247600E-003  7.022573428980800E-003  7.196030992676600E-003 
 7.373772958195700E-003  7.555905150263200E-003  7.742536007474700E-003  7.933776646859301E-003 
 8.129740930036700E-003  8.330545531008600E-003  8.536310005624499E-003  8.747156862763500E-003 
 8.963211637273700E-003  9.184602964714400E-003  9.411462657942800E-003  9.643925785594001E-003 
 9.882130752498200E-003  1.012621938208500E-002  1.037633700082200E-002  1.063263252474300E-002 
 1.089525854810400E-002  1.116437143424200E-002  1.144013140866800E-002  1.172270265446200E-002 
 1.201225341002700E-002  1.230895606925500E-002  1.261298728416500E-002  1.292452807008400E-002 
 1.324376391341500E-002  1.357088488207700E-002  1.390608573866400E-002  1.424956605640900E-002 
 1.460153033800200E-002  1.496218813735100E-002  1.533175418434300E-002  1.571044851269700E-002 
 1.609849659096000E-002  1.649612945675700E-002  1.690358385433900E-002  1.732110237554100E-002 
 1.774893360421700E-002  1.818733226424100E-002  1.863655937116800E-002  1.909688238763600E-002 
 1.956857538261000E-002  2.005191919456100E-002  2.054720159866700E-002  2.105471747815400E-002 
 2.157476899986400E-002  2.210766579416100E-002  2.265372513927600E-002  2.321327215021700E-002 
 2.378663997232700E-002  2.437416997964300E-002  2.497621197814100E-002  2.559312441400100E-002 
 2.622527458702600E-002  2.687303886932600E-002  2.753680292939800E-002  2.821696196175400E-002 
 2.891392092221000E-002  2.962809476898800E-002  3.035990870978200E-002  3.110979845491400E-002 
 3.187821047675000E-002  3.266560227552600E-002  3.347244265173200E-002  3.429921198522900E-002 
 3.514640252126500E-002  3.601451866354000E-002  3.690407727452900E-002  3.781560798321000E-002 
 3.874965350039500E-002  3.970676994185500E-002  4.068752715941900E-002  4.169250908025700E-002 
 4.272231405453900E-002  4.377755521168600E-002  4.485886082541500E-002  4.596687468780200E-002 
 4.710225649259100E-002  4.826568222795800E-002  4.945784457898900E-002  5.067945334009000E-002 
 5.193123583759000E-002  5.321393736277800E-002  5.452832161563900E-002  5.587517115954500E-002 
 5.725528788718600E-002  5.866949349800000E-002  6.011862998740000E-002  6.160356014808900E-002 
 6.312516808374700E-002  6.468435973541500E-002  6.628206342088000E-002  6.791923038737600E-002 
 6.959683537794401E-002  7.131587721177900E-002  7.307737937891000E-002  7.488239064956900E-002 
 7.673198569861300E-002  7.862726574536900E-002  8.056935920928000E-002  8.255942238174900E-002 
 8.459864011457800E-002  8.668822652540800E-002  8.882942572058600E-002  9.102351253588400E-002 
 9.327179329552100E-002  9.557560658992000E-002  9.793632407269100E-002  1.003553512772900E-001 
 1.028341284538400E-001  1.053741314266500E-001  1.079768724728800E-001  1.106439012229600E-001 
 1.133768055831700E-001  1.161772126810800E-001  1.190467898343000E-001  1.219872455432000E-001 
 1.250003305081200E-001  1.280878386716700E-001  1.312516082868600E-001  1.344935230115500E-001 
 1.378155130299300E-001  1.412195562017700E-001  1.447076792399600E-001  1.482819589171800E-001 
 1.519445233024400E-001  1.556975530280100E-001  1.595432825878000E-001  1.634840016677200E-001 
 1.675220565089100E-001  1.716598513046800E-001  1.758998496319100E-001  1.802445759178200E-001 
 1.846966169429900E-001  1.892586233814800E-001  1.939333113790000E-001  1.987234641700600E-001 
 2.036319337350600E-001  2.086616424983200E-001  2.138155850680300E-001  2.190968300192100E-001 
 2.245085217206800E-001  2.300538822071800E-001  2.357362130977000E-001  2.415588975612100E-001 
 2.475254023309700E-001  2.536392797685500E-001  2.599041699788300E-001  2.663238029773100E-001 
 2.729020009108500E-001  2.796426803333500E-001  2.865498545375800E-001  2.936276359446600E-001 
 3.008802385524900E-001  3.083119804447400E-001  3.159272863617200E-001  3.237306903348600E-001 
 3.317268383861300E-001  3.399204912942700E-001  3.483165274292300E-001  3.569199456567400E-001 
 3.657358683144600E-001  3.747695442618200E-001  3.840263520050900E-001  3.935118028996200E-001 
 4.032315444312400E-001  4.131913635786900E-001  4.233971902590800E-001  4.338551008584800E-001 
 4.445713218496900E-001  4.555522334993700E-001  4.668043736668100E-001  4.783344416963800E-001 
 4.901493024062800E-001  5.022559901757100E-001  5.146617131330500E-001  5.273738574474400E-001 
 5.403999917263900E-001  5.537478715220300E-001  5.674254439486300E-001  5.814408524141600E-001 
 5.958024414687900E-001  6.105187617730700E-001  6.255985751888600E-001  6.410508599960300E-001 
 6.568848162379300E-001  6.731098711990100E-001  6.897356850176199E-001  7.067721564375600E-001 
 7.242294287015600E-001  7.421178955904900E-001  7.604482076115801E-001  7.792312783395799E-001 
 7.984782909145700E-001  8.182007047001600E-001  8.384102621062600E-001  8.591189955802800E-001 
 8.803392347711100E-001  9.020836138699601E-001  9.243650791325499E-001  9.471968965871200E-001 
 9.705926599328200E-001  9.945662986331600E-001  1.019132086209400E+000  1.044304648738800E+000 
 1.070098973562600E+000  1.096530418209600E+000  1.123614719539400E+000  1.151368003112000E+000 
 1.179806792788900E+000  1.208948020570800E+000  1.238809036678900E+000  1.269407619884800E+000 
 1.300761988096000E+000  1.332890809202000E+000  1.365813212189300E+000  1.399548798530300E+000 
 1.434117653854000E+000  1.469540359904200E+000  1.505838006793900E+000  1.543032205561700E+000 
 1.581145101039000E+000  1.620199385034700E+000  1.660218309845100E+000  1.701225702098200E+000 
 1.743245976940100E+000  1.786304152570500E+000  1.830425865139000E+000  1.875637384007900E+000 
 1.921965627392900E+000  1.969438178389500E+000  2.018083301395700E+000  2.067929958940200E+000 
 2.119007828926000E+000  2.171347322300500E+000  2.224979601161300E+000  2.279936597310000E+000 
 2.336251031263600E+000  2.393956431735800E+000  2.453087155599600E+000  2.513678408342900E+000 
 2.575766265029000E+000  2.639387691775200E+000  2.704580567762100E+000  2.771383707785800E+000 
 2.839836885368100E+000  2.909980856436700E+000  2.981857383590700E+000  3.055509260965400E+000 
 3.130980339711200E+000  3.208315554102100E+000  3.287560948288400E+000  3.368763703711100E+000 
 3.451972167192800E+000  3.537235879722500E+000  3.624605605951600E+000  3.714133364418600E+000 
 3.805872458519800E+000  3.899877508245200E+000  3.996204482698800E+000  4.094910733421500E+000 
 4.196055028537000E+000  4.299697587741900E+000  4.405900118159100E+000  4.514725851077600E+000 
 4.626239579599300E+000  4.740507697215400E+000  4.857598237336600E+000  4.977580913798800E+000 
 5.100527162369600E+000  5.226510183280100E+000  5.355604984807200E+000  5.487888427931900E+000 
 5.623439272101800E+000  5.762338222122700E+000  5.904667976209200E+000  6.050513275221500E+000 
 6.199960953119500E+000  6.353099988661600E+000  6.510021558381500E+000  6.670819090873500E+000 
 6.835588322418100E+000  7.004427353981800E+000  7.177436709625200E+000  7.354719396352900E+000 
 7.536380965442800E+000  7.722529575289300E+000  7.913276055798900E+000  8.108733974377101E+000 
 8.309019703544299E+000  8.514252490221800E+000  8.724554526730300E+000  8.940051023540500E+000 
 9.160870283822000E+000  9.387143779832400E+000  9.619006231194200E+000  9.856595685104701E+000 
 1.010005359852700E+001  1.034952492241000E+001  1.060515818799400E+001  1.086710559523700E+001 
 1.113552310344000E+001  1.141057052409500E+001  1.169241161604000E+001  1.198121418295600E+001 
 1.227715017327500E+001  1.258039578255500E+001  1.289113155838400E+001  1.320954250787600E+001 
 1.353581820782100E+001  1.387015291755400E+001  1.421274569461700E+001  1.456380051327400E+001 
 1.492352638595200E+001  1.529213748768500E+001  1.566985328363100E+001  1.605689865973700E+001 
 1.645350405663200E+001  1.685990560683100E+001  1.727634527532000E+001  1.770307100362000E+001 
 1.814033685741000E+001  1.858840317778800E+001  1.904753673627900E+001  1.951801089366500E+001 
 2.000010576273900E+001  2.049410837507800E+001  2.100031285194300E+001  2.151902057938600E+001 
 2.205054038769700E+001  2.259518873527300E+001  2.315328989703400E+001  2.372517615749100E+001 
 2.431118800858100E+001  2.491167435239300E+001  2.552699270889700E+001  2.615750942880700E+001 
 2.680359991169800E+001  2.746564882951700E+001  2.814405035560600E+001  2.883920839939000E+001 
 2.955153684685500E+001  3.028145980697200E+001  3.102941186420400E+001  3.179583833725000E+001 
 3.258119554418000E+001  3.338595107412100E+001  3.421058406565200E+001  3.505558549207400E+001 
 3.592145845372800E+001  3.680871847753500E+001  3.771789382393000E+001  3.864952580138100E+001 
 3.960416908867500E+001  4.058239206516500E+001  4.158477714917500E+001  4.261192114476000E+001 
 4.366443559703500E+001  4.474294715628200E+001  4.584809795104200E+001  4.698054597043300E+001 
 4.814096545590300E+001  4.933004730266300E+001  5.054849947103900E+001  5.179704740797400E+001 
 5.307643447895100E+001  5.438742241058100E+001  5.573079174412200E+001  5.710734230020200E+001 
 5.851789365501700E+001  5.996328562829600E+001  6.144437878331500E+001  6.296205493926300E+001 
 6.451721769626199E+001  6.611079297336001E+001  6.774372955980201E+001  6.941699967992901E+001 
 7.113159957202301E+001  7.288855008145200E+001  7.468889726846400E+001  7.653371303099500E+001 
 7.842409574286100E+001
    </PP_R>
    <PP_RAB type="real" size="473" columns="4">
 1.906241158088682E-005  1.953325314693472E-005  2.001572449966400E-005  2.051011289480574E-005 
 2.101671268330747E-005  2.153582548658518E-005  2.206776037610380E-005  2.261283405739353E-005 
 2.317137105861124E-005  2.374370392375875E-005  2.433017341067574E-005  2.493112869392014E-005 
 2.554692757265911E-005  2.617793668370368E-005  2.682453171979235E-005  2.748709765326999E-005 
 2.816602896530525E-005  2.886172988074919E-005  2.957461460880363E-005  3.030510758964054E-005 
 3.105364374710431E-005  3.182066874765805E-005  3.260663926572500E-005  3.341202325558868E-005 
 3.423730023000299E-005  3.508296154568311E-005  3.594951069586255E-005  3.683746361004823E-005 
 3.774734896121746E-005  3.867970848055945E-005  3.963509728002955E-005  4.061408418284578E-005 
 4.161725206216167E-005  4.264519818809850E-005  4.369853458334443E-005  4.477788838755215E-005 
 4.588390223072542E-005  4.701723461582403E-005  4.817856031083570E-005  4.936857075051302E-005 
 5.058797444805070E-005  5.183749741691815E-005  5.311788360311570E-005  5.442989532811060E-005 
 5.577431374271638E-005  5.715193929216206E-005  5.856359219267804E-005  6.001011291983785E-005 
 6.149236270895593E-005  6.301122406786836E-005  6.456760130234528E-005  6.616242105451116E-005 
 6.779663285455778E-005  6.947120968606536E-005  7.118714856531188E-005  7.294547113487605E-005 
 7.474722427190689E-005  7.659348071142381E-005  7.848533968499575E-005  8.042392757521455E-005 
 8.241039858632090E-005  8.444593543140524E-005  8.653175003655914E-005  8.866908426246302E-005 
 9.085921064374652E-005  9.310343314664661E-005  9.540308794536790E-005  9.775954421761911E-005 
 1.001742049597938E-004  1.026485078223003E-004  1.051839259655124E-004  1.077819689368598E-004 
 1.104441835696003E-004  1.131721549037693E-004  1.159675071298940E-004  1.188319045560002E-004 
 1.217670525985355E-004  1.247746987977193E-004  1.278566338580223E-004  1.310146927143147E-004 
 1.342507556243592E-004  1.375667492882797E-004  1.409646479957006E-004  1.444464748011936E-004 
 1.480143027287839E-004  1.516702560061858E-004  1.554165113295373E-004  1.592552991593779E-004 
 1.631889050486149E-004  1.672196710033150E-004  1.713499968770965E-004  1.755823417999601E-004 
 1.799192256424188E-004  1.843632305157882E-004  1.889170023095281E-004  1.935832522665729E-004 
 1.983647585975567E-004  2.032643681349161E-004  2.082849980278482E-004  2.134296374791380E-004 
 2.187013495248712E-004  2.241032728581365E-004  2.296386236977313E-004  2.353106977030656E-004 
 2.411228719363321E-004  2.470786068731617E-004  2.531814484629167E-004  2.594350302399677E-004 
 2.658430754868912E-004  2.724093994514133E-004  2.791379116178686E-004  2.860326180348276E-004 
 2.930976237002826E-004  3.003371350056877E-004  3.077554622403136E-004  3.153570221576524E-004 
 3.231463406049446E-004  3.311280552179025E-004  3.393069181817774E-004  3.476877990608673E-004 
 3.562756876976633E-004  3.650756971838041E-004  3.740930669042302E-004  3.833331656567825E-004 
 3.928014948484900E-004  4.025036917712547E-004  4.124455329580072E-004  4.226329376220657E-004 
 4.330719711813341E-004  4.437688488695092E-004  4.547299394365921E-004  4.659617689406796E-004 
 4.774710246334995E-004  4.892645589419600E-004  5.013493935478347E-004  5.137327235684644E-004 
 5.264219218405956E-004  5.394245433100671E-004  5.527483295298068E-004  5.664012132692146E-004 
 5.803913232369553E-004  5.947269889208965E-004  6.094167455472627E-004  6.244693391622780E-004 
 6.398937318395662E-004  6.556991070160146E-004  6.718948749593015E-004  6.884906783707932E-004 
 7.054963981265682E-004  7.229221591602801E-004  7.407783364915389E-004  7.590755614028894E-004 
 7.778247277695315E-004  7.970369985454458E-004  8.167238124095306E-004  8.368968905760269E-004 
 8.575682437732754E-004  8.787501793944694E-004  9.004553088255019E-004  9.226965549534952E-004 
 9.454871598608395E-004  9.688406927094082E-004  9.927710578193350E-004  1.017292502947481E-003 
 1.042419627770276E-003  1.068167392576198E-003  1.094551127172839E-003  1.121586540013990E-003 
 1.149289727552343E-003  1.177677183822886E-003  1.206765810263322E-003  1.236572925776825E-003 
 1.267116277043507E-003  1.298414049086470E-003  1.330484876098915E-003  1.363347852538552E-003 
 1.397022544496260E-003  1.431529001345330E-003  1.466887767678545E-003  1.503119895540210E-003 
 1.540246956960058E-003  1.578291056796958E-003  1.617274845899849E-003  1.657221534593582E-003 
 1.698154906498039E-003  1.740099332688535E-003  1.783079786205943E-003  1.827121856925228E-003 
 1.872251766791273E-003  1.918496385431023E-003  1.965883246151179E-003  2.014440562331108E-003 
 2.064197244220682E-003  2.115182916152931E-003  2.167427934181918E-003  2.220963404156200E-003 
 2.275821200238874E-003  2.332033983884765E-003  2.389635223286719E-003  2.448659213301987E-003 
 2.509141095870569E-003  2.571116880938576E-003  2.634623467897557E-003  2.699698667554623E-003 
 2.766381224643293E-003  2.834710840892121E-003  2.904728198662092E-003  2.976474985168869E-003 
 3.049993917302613E-003  3.125328767059973E-003  3.202524387606348E-003  3.281626739980336E-003 
 3.362682920457722E-003  3.445741188593046E-003  3.530850995951447E-003  3.618063015551276E-003 
 3.707429172035531E-003  3.799002672584802E-003  3.892838038597602E-003  3.988991138150995E-003 
 4.087519219263259E-003  4.188480943979059E-003  4.291936423295450E-003  4.397947252950892E-003 
 4.506576550098776E-003  4.617888990886170E-003  4.731950848960996E-003  4.848830034930301E-003 
 4.968596136793068E-003  5.091320461371954E-003  5.217076076767878E-003  5.345937855864036E-003 
 5.477982520903768E-003  5.613288689170073E-003  5.751936919792637E-003  5.894009761711437E-003 
 6.039591802825665E-003  6.188769720355581E-003  6.341632332448286E-003  6.498270651059830E-003 
 6.658777936141018E-003  6.823249751163750E-003  6.991784020017404E-003  7.164481085311878E-003 
 7.341443768119005E-003  7.522777429191630E-003  7.708590031692540E-003  7.898992205475479E-003 
 8.094097312950698E-003  8.294021516580643E-003  8.498883848039979E-003  8.708806279086762E-003 
 8.923913794180168E-003  9.144334464896245E-003  9.370199526179256E-003  9.601643454475988E-003 
 9.838804047801530E-003  1.008182250778219E-002  1.033084352372432E-002  1.058601535876033E-002 
 1.084748993812184E-002  1.111542293959327E-002  1.138997388620136E-002  1.167130624119053E-002 
 1.195958750534792E-002  1.225498931672989E-002  1.255768755285312E-002  1.286786243540868E-002 
 1.318569863756323E-002  1.351138539391100E-002  1.384511661314074E-002  1.418709099348529E-002 
 1.453751214102439E-002  1.489658869090771E-002  1.526453443157301E-002  1.564156843203299E-002 
 1.602791517230416E-002  1.642380467706015E-002  1.682947265258340E-002  1.724516062710232E-002 
 1.767111609459156E-002  1.810759266212801E-002  1.855485020088269E-002  1.901315500084435E-002 
 1.948277992936526E-002  1.996400459362059E-002  2.045711550708316E-002  2.096240626010800E-002 
 2.148017769473260E-002  2.201073808379258E-002  2.255440331446230E-002  2.311149707632943E-002 
 2.368235105411472E-002  2.426730512515134E-002  2.486670756174260E-002  2.548091523851832E-002 
 2.611029384490854E-002  2.675521810287788E-002  2.741607199001951E-002  2.809324896817243E-002 
 2.878715221768711E-002  2.949819487746433E-002  3.022680029093773E-002  3.097340225812222E-002 
 3.173844529389894E-002  3.252238489265894E-002  3.332568779950788E-002  3.414883228815387E-002 
 3.499230844567131E-002  3.585661846427955E-002  3.674227694034887E-002  3.764981118077526E-002 
 3.857976151693861E-002  3.953268162640788E-002  4.050913886258120E-002  4.150971459248515E-002 
 4.253500454292135E-002  4.358561915513101E-002  4.466218394826296E-002  4.576533989178424E-002 
 4.689574378711144E-002  4.805406865865298E-002  4.924100415452119E-002  5.045725695713851E-002 
 5.170355120397928E-002  5.298062891871824E-002  5.428925045301004E-002  5.563019493919977E-002 
 5.700426075419905E-002  5.841226599482751E-002  5.985504896489793E-002  6.133346867433066E-002 
 6.284840535058736E-002  6.440076096274648E-002  6.599145975852760E-002  6.762144881456265E-002 
 6.929169860028213E-002  7.100320355570928E-002  7.275698268353563E-002  7.455408015581920E-002 
 7.639556593566683E-002  7.828253641427861E-002  8.021611506371075E-002  8.219745310578384E-002 
 8.422773019749757E-002  8.630815513337670E-002  8.843996656516998E-002  9.062443373932957E-002 
 9.286285725269249E-002  9.515656982683304E-002  9.750693710155443E-002  9.991535844796380E-002 
 1.023832678016282E-001  1.049121345163293E-001  1.075034642388821E-001  1.101587998055817E-001 
 1.128797221607816E-001  1.156678512981529E-001  1.185248472252167E-001  1.214524109516792E-001 
 1.244522855021850E-001  1.275262569540882E-001  1.306761555008562E-001  1.339038565417264E-001 
 1.372112817983066E-001  1.406004004587245E-001  1.440732303500566E-001  1.476318391397014E-001 
 1.512783455664527E-001  1.550149207019453E-001  1.588437892432824E-001  1.627672308375908E-001 
 1.667875814392799E-001  1.709072347008295E-001  1.751286433979412E-001  1.794543208898693E-001 
 1.838868426158487E-001  1.884288476284617E-001  1.930830401648836E-001  1.978521912569554E-001 
 2.027391403810042E-001  2.077467971484140E-001  2.128781430379803E-001  2.181362331710175E-001 
 2.235241981303429E-001  2.290452458241622E-001  2.347026633960176E-001  2.404998191818993E-001 
 2.464401647156974E-001  2.525272367841601E-001  2.587646595327404E-001  2.651561466231880E-001 
 2.717055034447966E-001  2.784166293798838E-001  2.852935201255634E-001  2.923402700726602E-001 
 2.995610747434546E-001  3.069602332896205E-001  3.145421510518716E-001  3.223113421828507E-001 
 3.302724323347784E-001  3.384301614134431E-001  3.467893864003408E-001  3.553550842444283E-001 
 3.641323548252689E-001  3.731264239894527E-001  3.823426466619966E-001  3.917865100345556E-001 
 4.014636368323968E-001  4.113797886621616E-001  4.215408694421237E-001  4.319529289173343E-001 
 4.426221662616067E-001  4.535549337682678E-001  4.647577406323351E-001  4.762372568259516E-001 
 4.880003170695642E-001  5.000539249011664E-001  5.124052568462393E-001  5.250616666903416E-001 
 5.380306898575971E-001  5.513200478970768E-001  5.649376530801288E-001  5.788916131112143E-001 
 5.931902359550606E-001  6.078420347831518E-001  6.228557330422930E-001  6.382402696484436E-001 
 6.540048043087472E-001  6.701587229751746E-001  6.867116434326598E-001  7.036734210254595E-001 
 7.210541545247899E-001  7.388641921415444E-001  7.571141376874355E-001  7.758148568883191E-001 
 7.949774838534588E-001  8.146134277046333E-001  8.347343793689428E-001  8.553523185393654E-001 
 8.764795208072821E-001  8.981285649712201E-001  9.203123405260063E-001  9.430440553369970E-001 
 9.663372435038181E-001  9.902057734183558E-001  1.014663856021799E+000  1.039726053265547E+000 
 1.065407286781192E+000  1.091722846764693E+000  1.118688401079777E+000  1.146320004586454E+000 
 1.174634108699747E+000  1.203647571184611E+000  1.233377666192877E+000  1.263842094547849E+000 
 1.295058994283182E+000  1.327046951441974E+000  1.359825011142582E+000  1.393412688917809E+000 
 1.427829982334079E+000  1.463097382897733E+000  1.499235888255309E+000  1.536267014695218E+000 
 1.574212809958170E+000  1.613095866364145E+000  1.652939334263340E+000  1.693766935819641E+000 
 1.735602979134381E+000  1.778472372719000E+000  1.822400640325163E+000  1.867413936141193E+000 
 1.913539060363891E+000
    </PP_RAB>
  </PP_MESH>
  <PP_LOCAL type="real" size="473" columns="4">
-2.313025469372000E+001 -2.313028371062800E+001 -2.313031410674600E+001 -2.313034595266600E+001 
-2.313037932245800E+001 -2.313041429384800E+001 -2.313045094839200E+001 -2.313048937168200E+001 
-2.313052965352800E+001 -2.313057188818800E+001 -2.313061617457600E+001 -2.313066261650200E+001 
-2.313071132291000E+001 -2.313076240813400E+001 -2.313081599217400E+001 -2.313087220096600E+001 
-2.313093116668400E+001 -2.313099302804400E+001 -2.313105793064000E+001 -2.313112602726800E+001 
-2.313119747829400E+001 -2.313127245202800E+001 -2.313135112511400E+001 -2.313143368294000E+001 
-2.313152032007400E+001 -2.313161124071000E+001 -2.313170665915400E+001 -2.313180680030800E+001 
-2.313191190020200E+001 -2.313202220653400E+001 -2.313213797924600E+001 -2.313225949112400E+001 
-2.313238702842800E+001 -2.313252089154600E+001 -2.313266139569000E+001 -2.313280887161800E+001 
-2.313296366639200E+001 -2.313312614417000E+001 -2.313329668703600E+001 -2.313347569587000E+001 
-2.313366359126600E+001 -2.313386081447200E+001 -2.313406782839800E+001 -2.313428511865400E+001 
-2.313451319464200E+001 -2.313475259070400E+001 -2.313500386730400E+001 -2.313526761229000E+001 
-2.313554444218800E+001 -2.313583500357000E+001 -2.313613997447600E+001 -2.313646006590600E+001 
-2.313679602336800E+001 -2.313714862850400E+001 -2.313751870077200E+001 -2.313790709922800E+001 
-2.313831472434600E+001 -2.313874251995400E+001 -2.313919147521800E+001 -2.313966262673200E+001 
-2.314015706068200E+001 -2.314067591510000E+001 -2.314122038221000E+001 -2.314179171086200E+001 
-2.314239120906400E+001 -2.314302024661800E+001 -2.314368025783000E+001 -2.314437274435400E+001 
-2.314509927810800E+001 -2.314586150431000E+001 -2.314666114461400E+001 -2.314750000034400E+001 
-2.314837995584400E+001 -2.314930298192000E+001 -2.315027113939000E+001 -2.315128658274600E+001 
-2.315235156389200E+001 -2.315346843600200E+001 -2.315463965746000E+001 -2.315586779588600E+001 
-2.315715553225200E+001 -2.315850566506800E+001 -2.315992111463000E+001 -2.316140492734400E+001 
-2.316296028006400E+001 -2.316459048450000E+001 -2.316629899160800E+001 -2.316808939600600E+001 
-2.316996544035000E+001 -2.317193101968800E+001 -2.317399018572000E+001 -2.317614715098600E+001 
-2.317840629291800E+001 -2.318077215771600E+001 -2.318324946405000E+001 -2.318584310648200E+001 
-2.318855815862400E+001 -2.319139987593000E+001 -2.319437369809800E+001 -2.319748525098600E+001 
-2.320074034801400E+001 -2.320414499093400E+001 -2.320770536991200E+001 -2.321142786282800E+001 
-2.321531903369800E+001 -2.321938563010400E+001 -2.322363457954000E+001 -2.322807298453800E+001 
-2.323270811646000E+001 -2.323754740781600E+001 -2.324259844295000E+001 -2.324786894699000E+001 
-2.325336677283000E+001 -2.325909988606200E+001 -2.326507634762200E+001 -2.327130429399600E+001 
-2.327779191481000E+001 -2.328454742761000E+001 -2.329157904964000E+001 -2.329889496643200E+001 
-2.330650329703000E+001 -2.331441205564200E+001 -2.332262910956400E+001 -2.333116213321200E+001 
-2.334001855807200E+001 -2.334920551849400E+001 -2.335872979315000E+001 -2.336859774212800E+001 
-2.337881523955600E+001 -2.338938760179400E+001 -2.340031951116800E+001 -2.341161493537800E+001 
-2.342327704266800E+001 -2.343530811300200E+001 -2.344770944549800E+001 -2.346048126247000E+001 
-2.347362261053200E+001 -2.348713125927600E+001 -2.350100359816800E+001 -2.351523453238000E+001 
-2.352981737839400E+001 -2.354474376033200E+001 -2.356000350805200E+001 -2.357558455818400E+001 
-2.359147285936400E+001 -2.360765228303000E+001 -2.362410454123400E+001 -2.364080911300600E+001 
-2.365774318084400E+001 -2.367488157899800E+001 -2.369219675516400E+001 -2.370965874727200E+001 
-2.372723517698400E+001 -2.374489126144600E+001 -2.376258984476400E+001 -2.378029145054000E+001 
-2.379795435661000E+001 -2.381553469295800E+001 -2.383298656349000E+001 -2.385026219213800E+001 
-2.386731209338400E+001 -2.388408526701200E+001 -2.390052941652000E+001 -2.391659119020000E+001 
-2.393221644360400E+001 -2.394735052159600E+001 -2.396193855792400E+001 -2.397592578974400E+001 
-2.398925788431800E+001 -2.400188127462600E+001 -2.401374350049200E+001 -2.402479355147000E+001 
-2.403498220761000E+001 -2.404426237407000E+001 -2.405258940546000E+001 -2.405992141579200E+001 