<UPF version="2.0.1">
  <PP_INFO>
    Generated using "atomic" code by A. Dal Corso  v.5.0.99 svn rev. 10869
    Author: ADC (similar to GBRV)
    Generation date: 10Apr2014
    Pseudopotential type: USPP
    Element: Sb
    Functional: PBE

    Suggested minimum cutoff for wavefunctions:  49. Ry
    Suggested minimum cutoff for charge density: 243. Ry
    The Pseudo was generated with a Scalar-Relativistic Calculation
    Local Potential by smoothing AE potential with Bessel fncs, cutoff radius:   2.0000

    Valence configuration: 
    nl pn  l   occ       Rcut    Rcut US       E pseu
    5S  1  0  2.00      1.350      1.900    -0.943029
    5P  2  1  3.00      1.350      2.300    -0.354838
    4D  3  2 10.00      1.350      1.700    -2.462784
    Generation configuration:
    5S  1  0  2.00      1.350      1.900    -0.943024
    5S  1  0  0.00      1.350      1.900     6.000000
    5P  2  1  3.00      1.350      2.300    -0.354837
    5P  2  1  0.00      1.350      2.300     6.300000
    4D  3  2 10.00      1.350      1.700    -2.462784
    4D  3  2  0.00      1.350      1.700    -2.000000

    Pseudization used: troullier-martins
<PP_INPUTFILE>
 &input
   title='Sb',
   zed=51.,
   rel=1,
   config='[Kr] 4d10.0 5s2.0 5p3.0 5d-2.0',
   iswitch=3,
   dft='PBE'
 /
 &inputp
   pseudotype=3,
   file_pseudopw='Sb.pbe-dn-rrkjus_psl.0.3.1.UPF',
   author='ADC (similar to GBRV)',
   lloc=-1,
   rcloc=2.0,
   which_augfun='PSQ',
   rmatch_augfun_nc=.true.,
   nlcc=.true.,
   new_core_ps=.true.,
   rcore=1.1,
   tm=.true.
 /
6
5S  1  0  2.00  0.00  1.35  1.90  0.0
5S  1  0  0.00  6.00  1.35  1.90  0.0
5P  2  1  3.00  0.00  1.35  2.30  0.0
5P  2  1  0.00  6.30  1.35  2.30  0.0
4D  3  2 10.00  0.00  1.35  1.70  0.0
4D  3  2  0.00 -2.00  1.35  1.70  0.0
</PP_INPUTFILE>
  </PP_INFO>
  <!--                               -->
  <!-- END OF HUMAN READABLE SECTION -->
  <!--                               -->
  <PP_HEADER generated='Generated using "atomic" code by A. Dal Corso  v.5.0.99 svn rev. 10869'
             author="ADC (similar to GBRV)"
             date="10Apr2014"
             comment=""
             element="Sb"
             pseudo_type="USPP"
             relativistic="scalar"
             is_ultrasoft="T"
             is_paw="F"
             is_coulomb="F"
             has_so="F"
             has_wfc="F"
             has_gipaw="F"
             paw_as_gipaw="F"
             core_correction="T"
             functional="PBE"
             z_valence="1.500000000000000E+001"
             total_psenergy="-1.926707292901235E+002"
             wfc_cutoff="4.935360967206251E+001"
             rho_cutoff="2.428636292041789E+002"
             l_max="2"
             l_max_rho="4"
             l_local="-1"
             mesh_size="1243"
             number_of_wfc="3"
             number_of_proj="6"/>
  <PP_MESH dx="1.250000000000000E-002" mesh="1243" xmin="-7.000000000000000E+000" rmax="1.000000000000000E+002"
zmesh="5.100000000000000E+001">
    <PP_R type="real" size="1243" columns="4">
 1.788003854028463E-005  1.810494173860828E-005  1.833267387091338E-005  1.856327052080890E-005 
 1.879676771949058E-005  1.903320195137076E-005  1.927261015977919E-005  1.951502975273551E-005 
 1.976049860879432E-005  2.000905508296382E-005  2.026073801269877E-005  2.051558672396899E-005 
 2.077364103740412E-005  2.103494127451562E-005  2.129952826399721E-005  2.156744334810428E-005 
 2.183872838911379E-005  2.211342577586534E-005  2.239157843038446E-005  2.267322981458937E-005 
 2.295842393708185E-005  2.324720536002378E-005  2.353961920610002E-005  2.383571116556892E-005 
 2.413552750340159E-005  2.443911506651077E-005  2.474652129107087E-005  2.505779420992989E-005 
 2.537298246011467E-005  2.569213529043059E-005  2.601530256915670E-005  2.634253479183778E-005 
 2.667388308917439E-005  2.700939923501210E-005  2.734913565443135E-005  2.769314543193885E-005 
 2.804148231976224E-005  2.839420074624893E-005  2.875135582437065E-005  2.911300336033503E-005 
 2.947919986230534E-005  2.985000254923003E-005  3.022546935978334E-005  3.060565896141828E-005 
 3.099063075953367E-005  3.138044490675617E-005  3.177516231233935E-005  3.217484465168090E-005 
 3.257955437595949E-005  3.298935472189296E-005  3.340430972161910E-005  3.382448421270083E-005 
 3.424994384825725E-005  3.468075510722198E-005  3.511698530473078E-005  3.555870260263951E-005 
 3.600597602017465E-005  3.645887544471767E-005  3.691747164272504E-005  3.738183627078582E-005 
 3.785204188681783E-005  3.832816196140523E-005  3.881027088927836E-005  3.929844400093802E-005 
 3.979275757442616E-005  4.029328884724430E-005  4.080011602842214E-005  4.131331831073793E-005 
 4.183297588309231E-005  4.235916994303833E-005  4.289198270946834E-005  4.343149743546111E-005 
 4.397779842129026E-005  4.453097102759622E-005  4.509110168872423E-005  4.565827792622968E-005 
 4.623258836255358E-005  4.681412273487007E-005  4.740297190910791E-005  4.799922789414869E-005 
 4.860298385620310E-005  4.921433413336860E-005  4.983337425036977E-005  5.046020093348432E-005 
 5.109491212565683E-005  5.173760700180238E-005  5.238838598430295E-005  5.304735075869856E-005 
 5.371460428957585E-005  5.439025083665664E-005  5.507439597108849E-005  5.576714659194054E-005 
 5.646861094290673E-005  5.717889862921898E-005  5.789812063477347E-005  5.862638933947177E-005 
 5.936381853678069E-005  6.011052345151261E-005  6.086662075782958E-005  6.163222859747413E-005 
 6.240746659822876E-005  6.319245589260836E-005  6.398731913678722E-005  6.479218052976435E-005 
 6.560716583277004E-005  6.643240238891592E-005  6.726801914309284E-005  6.811414666211869E-005 
 6.897091715513977E-005  6.983846449428882E-005  7.071692423560255E-005  7.160643364020281E-005 
 7.250713169574376E-005  7.341915913812902E-005  7.434265847350211E-005  7.527777400051301E-005 
 7.622465183286531E-005  7.718343992214674E-005  7.815428808094687E-005  7.913734800626585E-005 
 8.013277330321699E-005  8.114071950902818E-005  8.216134411734469E-005  8.319480660283805E-005 
 8.424126844612431E-005  8.530089315899547E-005  8.637384630996874E-005  8.746029555015689E-005 
 8.856041063946403E-005  8.967436347311124E-005  9.080232810849502E-005  9.194448079238453E-005 
 9.310099998846035E-005  9.427206640519972E-005  9.545786302411301E-005  9.665857512833436E-005 
 9.787439033157288E-005  9.910549860742773E-005  1.003520923190716E-004  1.016143662493083E-004 
 1.028925176310075E-004  1.041867461779230E-004  1.054972541158984E-004  1.068242462144652E-004 
 1.081679298188387E-004  1.095285148823157E-004  1.109062139990806E-004  1.123012424374232E-004 
 1.137138181733753E-004  1.151441619247696E-004  1.165924971857273E-004  1.180590502615796E-004 
 1.195440503042282E-004  1.210477293479510E-004  1.225703223456581E-004  1.241120672056029E-004 
 1.256732048285565E-004  1.272539791454488E-004  1.288546371554826E-004  1.304754289647289E-004 
 1.321166078252052E-004  1.337784301744476E-004  1.354611556755791E-004  1.371650472578826E-004 
 1.388903711578848E-004  1.406373969609549E-004  1.424063976434293E-004  1.441976496152635E-004 
 1.460114327632223E-004  1.478480304946132E-004  1.497077297815679E-004  1.515908212058837E-004 
 1.534975990044269E-004  1.554283611151077E-004  1.573834092234345E-004  1.593630488096512E-004 
 1.613675891964712E-004  1.633973435974080E-004  1.654526291657163E-004  1.675337670439480E-004 
 1.696410824141301E-004  1.717749045485770E-004  1.739355668613384E-004  1.761234069602964E-004 
 1.783387666999181E-004  1.805819922346694E-004  1.828534340731044E-004  1.851534471326316E-004 
 1.874823907949707E-004  1.898406289623077E-004  1.922285301141535E-004  1.946464673649218E-004 
 1.970948185222272E-004  1.995739661459190E-004  2.020842976078578E-004  2.046262051524412E-004 
 2.072000859578952E-004  2.098063421983319E-004  2.124453811065912E-004  2.151176150378723E-004 
 2.178234615341629E-004  2.205633433894836E-004  2.233376887159486E-004  2.261469310106593E-004 
 2.289915092234402E-004  2.318718678254239E-004  2.347884568785024E-004  2.377417321056490E-004 
 2.407321549621262E-004  2.437601927075900E-004  2.468263184790980E-004  2.499310113650405E-004 
 2.530747564799975E-004  2.562580450405388E-004  2.594813744419792E-004  2.627452483360947E-004 
 2.660501767098222E-004  2.693966759649440E-004  2.727852689987769E-004  2.762164852858772E-004 
 2.796908609607697E-004  2.832089389017231E-004  2.867712688155730E-004  2.903784073236157E-004 
 2.940309180485827E-004  2.977293717027048E-004  3.014743461768908E-004  3.052664266310214E-004 
 3.091062055853821E-004  3.129942830132475E-004  3.169312664346250E-004  3.209177710111848E-004 
 3.249544196423776E-004  3.290418430627639E-004  3.331806799405702E-004  3.373715769774781E-004 
 3.416151890096768E-004  3.459121791101797E-004  3.502632186924320E-004  3.546689876152218E-004 
 3.591301742889055E-004  3.636474757829782E-004  3.682215979349884E-004  3.728532554608285E-004 
 3.775431720664104E-004  3.822920805607450E-004  3.871007229704467E-004  3.919698506556751E-004 
 3.969002244275371E-004  4.018926146669659E-004  4.069478014450930E-004  4.120665746451378E-004 
 4.172497340858270E-004  4.224980896463681E-004  4.278124613929955E-004  4.331936797071067E-004 
 4.386425854150118E-004  4.441600299193132E-004  4.497468753319398E-004  4.554039946088544E-004 
 4.611322716864531E-004  4.669326016196839E-004  4.728058907218995E-004  4.787530567064713E-004 
 4.847750288301843E-004  4.908727480384343E-004  4.970471671122539E-004  5.032992508171850E-004 
 5.096299760540264E-004  5.160403320114767E-004  5.225313203206958E-004  5.291039552118135E-004 
 5.357592636724033E-004  5.424982856079525E-004  5.493220740043495E-004  5.562316950924138E-004 
 5.632282285144987E-004  5.703127674931858E-004  5.774864190021037E-004  5.847503039388963E-004 
 5.921055573003628E-004  5.995533283598058E-004  6.070947808466058E-004  6.147310931280567E-004 
 6.224634583934893E-004  6.302930848407072E-004  6.382211958647732E-004  6.462490302491641E-004 
 6.543778423593349E-004  6.626089023387168E-004  6.709434963071771E-004  6.793829265619809E-004 
 6.879285117812753E-004  6.965815872301365E-004  7.053435049692091E-004  7.142156340659653E-004 
 7.231993608086278E-004  7.322960889227769E-004  7.415072397906879E-004  7.508342526734247E-004 
 7.602785849357257E-004  7.698417122737219E-004  7.795251289455160E-004  7.893303480046637E-004 
 7.992589015365926E-004  8.093123408979911E-004  8.194922369592141E-004  8.298001803497317E-004 
 8.402377817066703E-004  8.508066719264780E-004  8.615085024197533E-004  8.723449453692847E-004 
 8.833176939913298E-004  8.944284628001844E-004  9.056789878760808E-004  9.170710271364506E-004 
 9.286063606106065E-004  9.402867907178721E-004  9.521141425492152E-004  9.640902641524233E-004 
 9.762170268208616E-004  9.884963253858701E-004  1.000930078512832E-003  1.013520229000969E-003 
 1.026268744086909E-003  1.039177615752075E-003  1.052248861033924E-003  1.065484522341127E-003 
 1.078886667772691E-003  1.092457391441106E-003  1.106198813799556E-003  1.120113081973241E-003 
 1.134202370094872E-003  1.148468879644384E-003  1.162914839792916E-003  1.177542507751136E-003 
 1.192354169121921E-003  1.207352138257495E-003  1.222538758621048E-003  1.237916403152909E-003 
 1.253487474641325E-003  1.269254406097893E-003  1.285219661137733E-003  1.301385734364424E-003 
 1.317755151759799E-003  1.334330471078631E-003  1.351114282248286E-003  1.368109207773405E-003 
 1.385317903145679E-003  1.402743057258769E-003  1.420387392828460E-003  1.438253666818081E-003 
 1.456344670869292E-003  1.474663231738283E-003  1.493212211737457E-003  1.511994509182681E-003 
 1.531013058846141E-003  1.550270832414916E-003  1.569770838955305E-003  1.589516125383005E-003 
 1.609509776939192E-003  1.629754917672599E-003  1.650254710927655E-003  1.671012359838762E-003 
 1.692031107830794E-003  1.713314239125890E-003  1.734865079256614E-003  1.756686995585583E-003 
 1.778783397831619E-003  1.801157738602527E-003  1.823813513934578E-003  1.846754263838758E-003 
 1.869983572853915E-003  1.893505070606840E-003  1.917322432379413E-003  1.941439379682869E-003 
 1.965859680839289E-003  1.990587151570414E-003  2.015625655593852E-003  2.040979105226797E-003 
 2.066651461997340E-003  2.092646737263455E-003  2.118968992839791E-003  2.145622341632333E-003 
 2.172610948281058E-003  2.199939029810661E-003  2.227610856289486E-003  2.255630751496714E-003 
 2.284003093597981E-003  2.312732315829462E-003  2.341822907190581E-003  2.371279413145425E-003 
 2.401106436332979E-003  2.431308637286300E-003  2.461890735160732E-003  2.492857508471286E-003 
 2.524213795839299E-003  2.555964496748465E-003  2.588114572310398E-003  2.620669046039814E-003 
 2.653633004639465E-003  2.687011598794951E-003  2.720810043979515E-003  2.755033621268984E-003 
 2.789687678166935E-003  2.824777629440260E-003  2.860308957965243E-003  2.896287215584252E-003 
 2.932718023973238E-003  2.969607075520131E-003  3.006960134214284E-003  3.044783036547118E-003 
 3.083081692424072E-003  3.121862086088046E-003  3.161130277054449E-003  3.200892401058008E-003 
 3.241154671011501E-003  3.281923377976521E-003  3.323204892146474E-003  3.365005663841938E-003 
 3.407332224518532E-003  3.450191187787480E-003  3.493589250448990E-003  3.537533193538645E-003 
 3.582029883386956E-003  3.627086272692241E-003  3.672709401607001E-003  3.718906398837948E-003 
 3.765684482759887E-003  3.813050962543601E-003  3.861013239297923E-003  3.909578807226179E-003 
 3.958755254797166E-003  4.008550265930865E-003  4.058971621199075E-003  4.110027199041134E-003 
 4.161724976994963E-003  4.214073032943542E-003  4.267079546377118E-003  4.320752799671254E-003 
 4.375101179380977E-003  4.430133177551194E-003  4.485857393043579E-003  4.542282532880175E-003 
 4.599417413603879E-003  4.657270962656041E-003  4.715852219771415E-003  4.775170338390604E-003 
 4.835234587090326E-003  4.896054351031642E-003  4.957639133426402E-003  5.019998557022159E-003 
 5.083142365605718E-003  5.147080425525636E-003  5.211822727233858E-003  5.277379386846743E-003 
 5.343760647725738E-003  5.410976882077906E-003  5.479038592576617E-003  5.547956414002609E-003 
 5.617741114905688E-003  5.688403599287360E-003  5.759954908304567E-003  5.832406221994916E-003 
 5.905768861023575E-003  5.980054288452143E-003  6.055274111529802E-003  6.131440083506938E-003 
 6.208564105471635E-003  6.286658228209233E-003  6.365734654085289E-003  6.445805738952239E-003 
 6.526883994079993E-003  6.608982088110872E-003  6.692112849039097E-003  6.776289266215187E-003 
 6.861524492375597E-003  6.947831845697821E-003  7.035224811881407E-003  7.123717046255127E-003 
 7.213322375910634E-003  7.304054801863000E-003  7.395928501238373E-003  7.488957829489198E-003 
 7.583157322637284E-003  7.678541699545079E-003  7.775125864215548E-003  7.872924908120917E-003 
 7.971954112560771E-003  8.072228951049780E-003  8.173765091735459E-003  8.276578399846383E-003 
 8.380684940171114E-003  8.486100979568383E-003  8.592842989508815E-003  8.700927648648625E-003 
 8.810371845435719E-003  8.921192680748504E-003  9.033407470567962E-003  9.147033748683307E-003 
 9.262089269431660E-003  9.378592010472237E-003  9.496560175595345E-003  9.616012197566791E-003 
 9.736966741008036E-003  9.859442705312567E-003  9.983459227599006E-003  1.010903568570126E-002 
 1.023619170119640E-002  1.036494714247054E-002  1.049532212782334E-002  1.062733702861151E-002 
 1.076101247243189E-002  1.089636934634454E-002  1.103342880013639E-002  1.117221224962594E-002 
 1.131274138000954E-002  1.145503814924973E-002  1.159912479150619E-002  1.174502382060992E-002 
 1.189275803358105E-002  1.204235051419094E-002  1.219382463656903E-002  1.234720406885510E-002 
 1.250251277689753E-002  1.265977502799788E-002  1.281901539470289E-002  1.298025875864381E-002 
 1.314353031442431E-002  1.330885557355715E-002  1.347626036845044E-002  1.364577085644396E-002 
 1.381741352389635E-002  1.399121519032359E-002  1.416720301258966E-002  1.434540448914984E-002 
 1.452584746434741E-002  1.470856013276435E-002  1.489357104362684E-002  1.508090910526610E-002 
 1.527060358963539E-002  1.546268413688386E-002  1.565718075998779E-002  1.585412384944025E-002 
 1.605354417799966E-002  1.625547290549805E-002  1.645994158370995E-002  1.666698216128232E-002 
 1.687662698872663E-002  1.708890882347370E-002  1.730386083499207E-002  1.752151660997090E-002 
 1.774191015756784E-002  1.796507591472310E-002  1.819104875154027E-002  1.841986397673482E-002 
 1.865155734315126E-002  1.888616505334945E-002  1.912372376526144E-002  1.936427059791926E-002 
 1.960784313725490E-002  1.985447944197323E-002  2.010421804949861E-002  2.035709798199658E-002 
 2.061315875247107E-002  2.087244037093842E-002  2.113498335067905E-002  2.140082871456769E-002 
 2.167001800148330E-002  2.194259327279963E-002  2.221859711895738E-002  2.249807266611907E-002 
 2.278106358290752E-002  2.306761408722924E-002  2.335776895318351E-002  2.365157351805845E-002 
 2.394907368941510E-002  2.425031595226049E-002  2.455534737631108E-002  2.486421562334746E-002 
 2.517696895466160E-002  2.549365623859787E-002  2.581432695818867E-002  2.613903121888634E-002 
 2.646781975639224E-002  2.680074394458424E-002  2.713785580354415E-002  2.747920800768576E-002 
 2.782485389398545E-002  2.817484747031618E-002  2.852924342388630E-002  2.888809712978462E-002 
 2.925146465963276E-002  2.961940279034654E-002  2.999196901300745E-002  3.036922154184575E-002 
 3.075121932333665E-002  3.113802204541067E-002  3.152969014678007E-002  3.192628482638257E-002 
 3.232786805294369E-002  3.273450257465967E-002  3.314625192900180E-002  3.356318045264442E-002 
 3.398535329151758E-002  3.441283641098625E-002  3.484569660615762E-002  3.528400151231783E-002 
 3.572781961550019E-002  3.617722026318630E-002  3.663227367514162E-002  3.709305095438765E-002 
 3.755962409831170E-002  3.803206600991677E-002  3.851045050921272E-002  3.899485234475082E-002 
 3.948534720530347E-002  3.998201173169050E-002  4.048492352875466E-002  4.099416117748739E-002 
 4.150980424730735E-002  4.203193330849333E-002  4.256062994477339E-002  4.309597676607261E-002 
 4.363805742142096E-002  4.418695661202370E-002  4.474276010449616E-002  4.530555474426480E-002 
 4.587542846913710E-002  4.645247032304199E-002  4.703677046994310E-002  4.762842020792723E-002 
 4.822751198346962E-002  4.883413940587907E-002  4.944839726192450E-002  5.007038153064562E-002 
 5.070018939834994E-002  5.133791927379807E-002  5.198367080358055E-002  5.263754488768769E-002 
 5.329964369527539E-002  5.397007068062955E-002  5.464893059933042E-002  5.533632952462156E-002 
 5.603237486398364E-002  5.673717537591688E-002  5.745084118693539E-002  5.817348380877389E-002 
 5.890521615581239E-002  5.964615256271893E-002  6.039640880231433E-002  6.115610210366265E-002 
 6.192535117038762E-002  6.270427619922107E-002  6.349299889878360E-002  6.429164250860143E-002 
 6.510033181836375E-002  6.591919318742021E-002  6.674835456452584E-002  6.758794550783288E-002 
 6.843809720513415E-002  6.929894249436222E-002  7.017061588434471E-002  7.105325357582237E-002 
 7.194699348273033E-002  7.285197525374713E-002  7.376834029411597E-002  7.469623178773847E-002 
 7.563579471954850E-002  7.658717589816579E-002  7.755052397883484E-002  7.852598948665351E-002 
 7.951372484009170E-002  8.051388437480807E-002  8.152662436776492E-002  8.255210306164627E-002 
 8.359048068958475E-002  8.464191950019695E-002  8.570658378293640E-002  8.678463989376349E-002 
 8.787625628113852E-002  8.898160351234329E-002  9.010085430013118E-002  9.123418352971507E-002 
 9.238176828609303E-002  9.354378788171770E-002  9.472042388451536E-002  9.591186014625502E-002 
 9.711828283127673E-002  9.833988044557966E-002  9.957684386627610E-002  1.008293663714175E-001 
 1.020976436701931E-001  1.033818739335116E-001  1.046822578249643E-001  1.059989985321797E-001 
 1.073323017985727E-001  1.086823759554907E-001  1.100494319547677E-001  1.114336834016852E-001 
 1.128353465883477E-001  1.142546405274800E-001  1.156917869866474E-001  1.171470105229083E-001 
 1.186205385179010E-001  1.201126012133723E-001  1.216234317471543E-001  1.231532661895915E-001 
 1.247023435804280E-001  1.262709059661581E-001  1.278591984378454E-001  1.294674691694203E-001 
 1.310959694564563E-001  1.327449537554367E-001  1.344146797235134E-001  1.361054082587654E-001 
 1.378174035409667E-001  1.395509330728627E-001  1.413062677219699E-001  1.430836817628988E-001 
 1.448834529202088E-001  1.467058624118056E-001  1.485511949928794E-001  1.504197390004005E-001 
 1.523117863981721E-001  1.542276328224489E-001  1.561675776281329E-001  1.581319239355466E-001 
 1.601209786777970E-001  1.621350526487348E-001  1.641744605515150E-001  1.662395210477722E-001 
 1.683305568074097E-001  1.704478945590196E-001  1.725918651409336E-001  1.747628035529164E-001 
 1.769610490085124E-001  1.791869449880456E-001  1.814408392922920E-001  1.837230840968223E-001 
 1.860340360070299E-001  1.883740561138532E-001  1.907435100501939E-001  1.931427680480506E-001 
 1.955722049963672E-001  1.980322004996089E-001  2.005231389370786E-001  2.030454095229744E-001 
 2.055994063672072E-001  2.081855285369806E-001  2.108041801191442E-001  2.134557702833363E-001 
 2.161407133459138E-001  2.188594288346934E-001  2.216123415545017E-001  2.243998816535514E-001 
 2.272224846906550E-001  2.300805917032787E-001  2.329746492764587E-001  2.359051096125792E-001 
 2.388724306020289E-001  2.418770758947503E-001  2.449195149726826E-001  2.480002232231220E-001 
 2.511196820130008E-001  2.542783787641006E-001  2.574768070292163E-001  2.607154665692704E-001 
 2.639948634314060E-001  2.673155100280542E-001  2.706779252170018E-001  2.740826343824637E-001 
 2.775301695171727E-001  2.810210693055088E-001  2.845558792076652E-001  2.881351515448812E-001 
 2.917594455857421E-001  2.954293276335646E-001  2.991453711148859E-001  3.029081566690593E-001 
 3.067182722389837E-001  3.105763131629692E-001  3.144828822677583E-001  3.184385899627227E-001 
 3.224440543352365E-001  3.264999012472578E-001  3.306067644331186E-001  3.347652855985463E-001 
 3.389761145209346E-001  3.432399091508684E-001  3.475573357149342E-001  3.519290688198168E-001 
 3.563557915577072E-001  3.608381956130406E-001  3.653769813705690E-001  3.699728580248016E-001 
 3.746265436908170E-001  3.793387655164670E-001  3.841102597960004E-001  3.889417720851046E-001 
 3.938340573174052E-001  3.987878799224241E-001  4.038040139450203E-001  4.088832431663418E-001 
 4.140263612262868E-001  4.192341717475165E-001  4.245074884610211E-001  4.298471353332641E-001 
 4.352539466949346E-001  4.407287673713064E-001  4.462724528142496E-001  4.518858692358941E-001 
 4.575698937439749E-001  4.633254144788873E-001  4.691533307524540E-001  4.750545531884506E-001 
 4.810300038648897E-001  4.870806164580951E-001  4.932073363885960E-001  4.994111209688450E-001 
 5.056929395528051E-001  5.120537736874117E-001  5.184946172659373E-001  5.250164766832972E-001 
 5.316203709932923E-001  5.383073320678451E-001  5.450784047582292E-001  5.519346470583265E-001 
 5.588771302699475E-001  5.659069391702164E-001  5.730251721810773E-001  5.802329415409212E-001 
 5.875313734783730E-001  5.949216083882737E-001  6.024048010098615E-001  6.099821206072090E-001 
 6.176547511519209E-001  6.254238915081275E-001  6.332907556198181E-001  6.412565727005132E-001 
 6.493225874253394E-001  6.574900601255091E-001  6.657602669852462E-001  6.741345002412006E-001 
 6.826140683843539E-001  6.912002963644812E-001  6.998945257971747E-001  7.086981151734694E-001 
 7.176124400721184E-001  7.266388933745215E-001  7.357788854823725E-001  7.450338445380353E-001 
 7.544052166476890E-001  7.638944661072945E-001  7.735030756313834E-001  7.832325465847438E-001 
 7.930843992170086E-001  8.030601729001922E-001  8.131614263692316E-001  8.233897379655296E-001 
 8.337467058835840E-001  8.442339484207051E-001  8.548531042298727E-001  8.656058325757899E-001 
 8.764938135941345E-001  8.875187485540934E-001  8.986823601241866E-001  9.099863926414309E-001 
 9.214326123839088E-001  9.330228078467393E-001  9.447587900215454E-001  9.566423926794207E-001 
 9.686754726574547E-001  9.808599101488786E-001  9.931976089968366E-001  1.005690496991877E+000 
 1.018340526173166E+000  1.031149673133499E+000  1.044119939328151E+000  1.057253351387599E+000 
 1.070551961434201E+000  1.084017847402833E+000  1.097653113365572E+000  1.111459889860468E+000 
 1.125440334224436E+000  1.139596630930353E+000  1.153930991928382E+000  1.168445656991588E+000 
 1.183142894065923E+000  1.198024999624576E+000  1.213094299026821E+000  1.228353146881351E+000 
 1.243803927414183E+000  1.259449054841215E+000  1.275290973745432E+000  1.291332159458896E+000 
 1.307575118449514E+000  1.324022388712670E+000  1.340676540167808E+000  1.357540175059973E+000 
 1.374615928366429E+000  1.391906468208371E+000  1.409414496267825E+000  1.427142748209799E+000 
 1.445093994109723E+000  1.463271038886292E+000  1.481676722739739E+000  1.500313921595606E+000 
 1.519185547554137E+000  1.538294549345278E+000  1.557643912789438E+000  1.577236661264026E+000 
 1.597075856175846E+000  1.617164597439473E+000  1.637506023961594E+000  1.658103314131490E+000 
 1.678959686317660E+000  1.700078399370684E+000  1.721462753132449E+000  1.743116088951732E+000 
 1.765041790206310E+000  1.787243282831616E+000  1.809724035856037E+000  1.832487561942975E+000 
 1.855537417939689E+000  1.878877205433076E+000  1.902510571312420E+000  1.926441208339217E+000 
 1.950672855724195E+000  1.975209299711551E+000  2.000054374170582E+000  2.025211961194723E+000 
 2.050685991708122E+000  2.076480446079883E+000  2.102599354745972E+000  2.129046798839012E+000 
 2.155826910825953E+000  2.182943875153772E+000  2.210401928903320E+000  2.238205362451354E+000 
 2.266358520140935E+000  2.294865800960233E+000  2.323731659229869E+000  2.352960605298933E+000 
 2.382557206249705E+000  2.412526086611305E+000  2.442871929082264E+000  2.473599475262199E+000 
 2.504713526392726E+000  2.536218944107627E+000  2.568120651192522E+000  2.600423632354052E+000 
 2.633132934998736E+000  2.666253670021669E+000  2.699791012605073E+000  2.733750203026964E+000 
 2.768136547479941E+000  2.802955418900275E+000  2.838212257807474E+000  2.873912573154337E+000 
 2.910061943187777E+000  2.946666016320412E+000  2.983730512013130E+000  3.021261221668802E+000 
 3.059264009537159E+000  3.097744813631127E+000  3.136709646654641E+000  3.176164596942125E+000 
 3.216115829409843E+000  3.256569586519139E+000  3.297532189251871E+000  3.339010038098062E+000 
 3.381009614055968E+000  3.423537479644793E+000  3.466600279930048E+000  3.510204743561895E+000 
 3.554357683826497E+000  3.599065999710588E+000  3.644336676979496E+000  3.690176789268637E+000 
 3.736593499188823E+000  3.783594059445424E+000  3.831185813971587E+000  3.879376199075799E+000 
 3.928172744603761E+000  3.977583075114998E+000  4.027614911074184E+000  4.078276070057464E+000 
 4.129574467974015E+000  4.181518120302864E+000  4.234115143345375E+000  4.287373755493415E+000 
 4.341302278513474E+000  4.395909138847006E+000  4.451202868927021E+000  4.507192108511350E+000 
 4.563885606032594E+000  4.621292219965071E+000  4.679420920209017E+000  4.738280789492094E+000 
 4.797881024788635E+000  4.858230938756673E+000  4.919339961193031E+000  4.981217640506809E+000 
 5.043873645211274E+000  5.107317765434643E+000  5.171559914449789E+000  5.236610130223180E+000 
 5.302478576983392E+000  5.369175546809227E+000  5.436711461237921E+000  5.505096872893520E+000 
 5.574342467135705E+000  5.644459063729478E+000  5.715457618535690E+000  5.787349225222986E+000 
 5.860145117001188E+000  5.933856668376468E+000  6.008495396928717E+000  6.084072965111107E+000 
 6.160601182072435E+000  6.238092005502315E+000  6.316557543499540E+000  6.396010056464084E+000 
 6.476461959012724E+000  6.557925821918922E+000  6.640414374077011E+000  6.723940504491067E+000 
 6.808517264288923E+000  6.894157868761349E+000  6.980875699427041E+000  7.068684306123484E+000 
 7.157597409124096E+000  7.247628901282142E+000  7.338792850201415E+000  7.431103500434422E+000 
 7.524575275708083E+000  7.619222781177427E+000  7.715060805707774E+000  7.812104324185411E+000 
 7.910368499857551E+000  8.009868686701580E+000  8.110620431824094E+000  8.212639477890280E+000 
 8.315941765583618E+000  8.420543436096743E+000  8.526460833653502E+000  8.633710508062723E+000 
 8.742309217304266E+000  8.852273930147364E+000  8.963621828802136E+000  9.076370311604306E+000 
 9.190536995733666E+000  9.306139719966920E+000  9.423196547464890E+000  9.541725768595043E+000 
 9.661745903789349E+000  9.783275706438079E+000  9.906334165820185E+000  1.003094051007028E+001 
 1.015711420918318E+001  1.028487497805609E+001  1.041424277956904E+001  1.054523782770426E+001 
 1.067788059070450E+001  1.081219179427135E+001  1.094819242480365E+001  1.108590373267657E+001 
 1.122534723556219E+001  1.136654472179150E+001  1.150951825375900E+001  1.165429017136996E+001 
 1.180088309553102E+001  1.194931993168487E+001  1.209962387338909E+001  1.225181840594041E+001 
 1.240592731004420E+001  1.256197466553021E+001  1.271998485511527E+001  1.287998256821294E+001 
 1.304199280479141E+001  1.320604087927979E+001  1.337215242452344E+001  1.354035339578930E+001 
 1.371067007482129E+001  1.388312907394705E+001  1.405775734023608E+001  1.423458215971022E+001 
 1.441363116160733E+001  1.459493232269818E+001  1.477851397165806E+001  1.496440479349317E+001 
 1.515263383402255E+001  1.534323050441680E+001  1.553622458579337E+001  1.573164623387018E+001 
 1.592952598367733E+001  1.612989475432828E+001  1.633278385385115E+001  1.653822498408046E+001 
 1.674625024561081E+001  1.695689214281258E+001  1.717018358891070E+001  1.738615791112763E+001 
 1.760484885589056E+001  1.782629059410456E+001  1.805051772649178E+001  1.827756528899781E+001 
 1.850746875826627E+001  1.874026405718191E+001  1.897598756048385E+001  1.921467610044910E+001 