<UPF version="2.0.1">
  <PP_INFO>
    Generated in analytical, separable form
    Author: Goedecker/Hartwigsen/Hutter/Teter
    Generation date: Phys.Rev.B58, 3641 (1998); B54, 1703 (1996)
    Pseudopotential type: NC
    Element: Cs
    Functional: SLA-PW-PBX-PBC

    Suggested minimum cutoff for wavefunctions:   0. Ry
    Suggested minimum cutoff for charge density:   0. Ry
    The Pseudo was generated with a Non-Relativistic Calculation
    Local Potential: unknown format, L component and cutoff radius: -3   0.0000

    Valence configuration: 
    nl pn  l   occ       Rcut    Rcut US       E pseu

    Generation configuration: not available.
    Converted from CPMD format using cpmd2upf v.5.0.1 - PG 10Jul2012
    Contains atomic orbitals generated by ld1.x - use with care
  </PP_INFO>
  <!--                               -->
  <!-- END OF HUMAN READABLE SECTION -->
  <!--                               -->
  <PP_HEADER generated="Generated in analytical, separable form"
             author="Goedecker/Hartwigsen/Hutter/Teter"
             date="Phys.Rev.B58, 3641 (1998); B54, 1703 (1996)"
             comment="Contains atomic orbitals generated by ld1.x - use with care"
             element="Cs"
             pseudo_type="NC"
             relativistic="no"
             is_ultrasoft="F"
             is_paw="F"
             is_coulomb="F"
             has_so="F"
             has_wfc="F"
             has_gipaw="F"
             paw_as_gipaw="F"
             core_correction="F"
             functional="SLA-PW-PBX-PBC"
             z_valence="9.000000000000000E+000"
             total_psenergy="0.000000000000000E+000"
             wfc_cutoff="0.000000000000000E+000"
             rho_cutoff="0.000000000000000E+000"
             l_max="3"
             l_max_rho="0"
             l_local="-3"
             mesh_size="1251"
             number_of_wfc=" 5"
             number_of_proj="6"/>
  <PP_MESH dx="1.250000000000000E-002" mesh="1251" xmin="-7.000000000000000E+000" rmax="1.012575037921092E+002"
zmesh="5.500000000000000E+001">
    <PP_R type="real" size="1251" columns="4">
 1.657967210099120E-005  1.678821870307313E-005  1.699938849848331E-005  1.721321448293189E-005 
 1.742973006716400E-005  1.764896908218016E-005  1.787096578452252E-005  1.809575486162748E-005 
 1.832337143724564E-005  1.855385107693008E-005  1.878722979359340E-005  1.902354405313488E-005 
 1.926283078013837E-005  1.950512736364176E-005  1.975047166297923E-005  1.999890201369669E-005 
 2.025045723354188E-005  2.050517662852968E-005  2.076309999908377E-005  2.102426764625560E-005 
 2.128872037802135E-005  2.155649951565842E-005  2.182764690020183E-005  2.210220489898209E-005 
 2.238021641224511E-005  2.266172487985545E-005  2.294677428808390E-005  2.323540917648045E-005 
 2.352767464483360E-005  2.382361636021745E-005  2.412328056412712E-005  2.442671407970412E-005 
 2.473396431905262E-005  2.504507929064758E-005  2.536010760683634E-005  2.567909849143421E-005 
 2.600210178741590E-005  2.632916796470356E-005  2.666034812805278E-005  2.699569402503794E-005 
 2.733525805413768E-005  2.767909327292239E-005  2.802725340634455E-005  2.837979285513331E-005 
 2.873676670429485E-005  2.909823073171935E-005  2.946424141689648E-005  2.983485594974047E-005 
 3.021013223952607E-005  3.059012892393712E-005  3.097490537822862E-005  3.136452172450441E-005 
 3.175903884111127E-005  3.215851837215129E-005  3.256302273711400E-005  3.297261514062937E-005 
 3.338735958234376E-005  3.380732086692002E-005  3.423256461416322E-005  3.466315726927412E-005 
 3.509916611323108E-005  3.554065927330304E-005  3.598770573369449E-005  3.644037534632434E-005 
 3.689873884174062E-005  3.736286784017198E-005  3.783283486271872E-005  3.830871334268426E-005 
 3.879057763704924E-005  3.927850303809008E-005  3.977256578514336E-005  4.027284307651849E-005 
 4.077941308156006E-005  4.129235495286194E-005  4.181174883863520E-005  4.233767589523116E-005 
 4.287021829982241E-005  4.340945926324316E-005  4.395548304299097E-005  4.450837495639242E-005 
 4.506822139393379E-005  4.563510983275997E-005  4.620912885034288E-005  4.679036813832182E-005 
 4.737891851651815E-005  4.797487194712585E-005  4.857832154908092E-005  4.918936161261140E-005 
 4.980808761397033E-005  5.043459623035434E-005  5.106898535500932E-005  5.171135411252668E-005 
 5.236180287433169E-005  5.302043327436669E-005  5.368734822497176E-005  5.436265193296473E-005 
 5.504644991592392E-005  5.573884901867533E-005  5.643995742998743E-005  5.714988469947601E-005 
 5.786874175472122E-005  5.859664091860048E-005  5.933369592683906E-005  6.008002194578149E-005 
 6.083573559038676E-005  6.160095494244930E-005  6.237579956904972E-005  6.316039054123734E-005 
 6.395485045294779E-005  6.475930344015872E-005  6.557387520028601E-005  6.639869301182442E-005 
 6.723388575423513E-005  6.807958392808328E-005  6.893591967542924E-005  6.980302680047571E-005 
 7.068104079047509E-005  7.157009883689969E-005  7.247033985687801E-005  7.338190451490106E-005 
 7.430493524480121E-005  7.523957627200794E-005  7.618597363608326E-005  7.714427521354074E-005 
 7.811463074095163E-005  7.909719183834125E-005  8.009211203288012E-005  8.109954678287275E-005 
 8.211965350204847E-005  8.315259158415770E-005  8.419852242787720E-005  8.525760946202929E-005 
 8.633001817111778E-005  8.741591612118528E-005  8.851547298599570E-005  8.962886057354640E-005 
 9.075625285291304E-005  9.189782598143298E-005  9.305375833223011E-005  9.422423052208590E-005 
 9.540942543966153E-005  9.660952827407410E-005  9.782472654383310E-005  9.905521012614053E-005 
 1.003011712865595E-004  1.015628047090564E-004  1.028403075264201E-004  1.041338793510652E-004 
 1.054437223062208E-004  1.067700410575137E-004  1.081130428449472E-004  1.094729375152829E-004 
 1.108499375548298E-004  1.122442581226456E-004  1.136561170841557E-004  1.150857350451954E-004 
 1.165333353864797E-004  1.179991442985070E-004  1.194833908169022E-004  1.209863068582032E-004 
 1.225081272560994E-004  1.240490897981241E-004  1.256094352628097E-004  1.271894074573094E-004 
 1.287892532554931E-004  1.304092226365218E-004  1.320495687239071E-004  1.337105478250625E-004 
 1.353924194713517E-004  1.370954464586412E-004  1.388198948883629E-004  1.405660342090922E-004 
 1.423341372586504E-004  1.441244803067364E-004  1.459373430980937E-004  1.477730088962220E-004 
 1.496317645276369E-004  1.515139004266874E-004  1.534197106809370E-004  1.553494930771153E-004 
 1.573035491476479E-004  1.592821842177714E-004  1.612857074532411E-004  1.633144319086386E-004 
 1.653686745762876E-004  1.674487564357844E-004  1.695550025041514E-004  1.716877418866220E-004 
 1.738473078280639E-004  1.760340377650488E-004  1.782482733785787E-004  1.804903606474729E-004 
 1.827606499024288E-004  1.850594958807614E-004  1.873872577818316E-004  1.897442993231728E-004 
 1.921309887973210E-004  1.945476991293623E-004  1.969948079352030E-004  1.994726975805723E-004 
 2.019817552407692E-004  2.045223729611575E-004  2.070949477184250E-004  2.096998814826115E-004 
 2.123375812799171E-004  2.150084592563021E-004  2.177129327418840E-004  2.204514243161472E-004 
 2.232243618739718E-004  2.260321786924924E-004  2.288753134988000E-004  2.317542105384922E-004 
 2.346693196450886E-004  2.376210963103180E-004  2.406100017552896E-004  2.436365030025605E-004 
 2.467010729491079E-004  2.498041904402208E-004  2.529463403443206E-004  2.561280136287222E-004 
 2.593497074363501E-004  2.626119251634160E-004  2.659151765380768E-004  2.692599777000802E-004 
 2.726468512814128E-004  2.760763264879626E-004  2.795489391822079E-004  2.830652319669471E-004 
 2.866257542700818E-004  2.902310624304656E-004  2.938817197848341E-004  2.975782967558260E-004 
 3.013213709411137E-004  3.051115272036541E-004  3.089493577630739E-004  3.128354622882070E-004 
 3.167704479907912E-004  3.207549297203484E-004  3.247895300602555E-004  3.288748794250236E-004 
 3.330116161588033E-004  3.372003866351252E-004  3.414418453578984E-004  3.457366550636774E-004 
 3.500854868252169E-004  3.544890201563272E-004  3.589479431180506E-004  3.634629524261715E-004 
 3.680347535600798E-004  3.726640608730047E-004  3.773515977036317E-004  3.820980964891278E-004 
 3.869042988795850E-004  3.917709558539049E-004  3.966988278371413E-004  4.016886848193171E-004 
 4.067413064757382E-004  4.118574822888177E-004  4.170380116714351E-004  4.222837040918468E-004 
 4.275953792001656E-004  4.329738669564342E-004  4.384200077603068E-004  4.439346525823643E-004 
 4.495186630970800E-004  4.551729118174573E-004  4.608982822313626E-004  4.666956689395715E-004 
 4.725659777955518E-004  4.785101260470057E-004  4.845290424791907E-004  4.906236675600451E-004 
 4.967949535871376E-004  5.030438648364650E-004  5.093713777131240E-004  5.157784809038746E-004 
 5.222661755316261E-004  5.288354753118632E-004  5.354874067110417E-004  5.422230091069766E-004 
 5.490433349512455E-004  5.559494499336381E-004  5.629424331486708E-004  5.700233772641980E-004 
 5.771933886921446E-004  5.844535877613830E-004  5.918051088927897E-004  5.992491007764975E-004 
 6.067867265513833E-004  6.144191639868101E-004  6.221476056666552E-004  6.299732591756550E-004 
 6.378973472880916E-004  6.459211081588539E-004  6.540457955169030E-004  6.622726788611679E-004 
 6.706030436589094E-004  6.790381915465749E-004  6.875794405331833E-004  6.962281252062666E-004 
 7.049855969404002E-004  7.138532241083603E-004  7.228323922949330E-004  7.319245045134154E-004 
 7.411309814248405E-004  7.504532615599554E-004  7.598928015439985E-004  7.694510763242967E-004 
 7.791295794007307E-004  7.889298230590977E-004  7.988533386074076E-004  8.089016766151550E-004 
 8.190764071555967E-004  8.293791200510801E-004  8.398114251214568E-004  8.503749524356178E-004 
 8.610713525661987E-004  8.719022968474813E-004  8.828694776365450E-004  8.939746085777015E-004 
 9.052194248702535E-004  9.166056835396250E-004  9.281351637118985E-004  9.398096668918071E-004 
 9.516310172442257E-004  9.636010618791969E-004  9.757216711405479E-004  9.879947388981363E-004 
 1.000422182843768E-003  1.013005944790844E-003  1.025747990977770E-003  1.038650312375187E-003 
 1.051714924997063E-003  1.064943870215701E-003  1.078339215080705E-003  1.091903052641963E-003 
 1.105637502276690E-003  1.119544710020586E-003  1.133626848903153E-003  1.147886119287244E-003 
 1.162324749212865E-003  1.176944994745319E-003  1.191749140327716E-003  1.206739499137920E-003 
 1.221918413449996E-003  1.237288255000186E-003  1.252851425357502E-003  1.268610356298976E-003 
 1.284567510189629E-003  1.300725380367223E-003  1.317086491531845E-003  1.333653400140402E-003 
 1.350428694806071E-003  1.367414996702771E-003  1.384614959974734E-003  1.402031272151213E-003 
 1.419666654566421E-003  1.437523862784740E-003  1.455605687031283E-003  1.473914952627878E-003 
 1.492454520434524E-003  1.511227287296410E-003  1.530236186496553E-003  1.549484188214124E-003 
 1.568974299988555E-003  1.588709567189462E-003  1.608693073492497E-003  1.628927941361177E-003 
 1.649417332534773E-003  1.670164448522344E-003  1.691172531102973E-003  1.712444862832303E-003 
 1.733984767555448E-003  1.755795610926342E-003  1.777880800933638E-003  1.800243788433206E-003 
 1.822888067687341E-003  1.845817176910747E-003  1.869034698823389E-003  1.892544261210304E-003 
 1.916349537488443E-003  1.940454247280658E-003  1.964862156996897E-003  1.989577080422708E-003 
 2.014602879315162E-003  2.039943464006251E-003  2.065602794013886E-003  2.091584878660590E-003 
 2.117893777699945E-003  2.144533601950955E-003  2.171508513940358E-003  2.198822728553031E-003 
 2.226480513690581E-003  2.254486190938204E-003  2.282844136239950E-003  2.311558780582466E-003 
 2.340634610687350E-003  2.370076169712213E-003  2.399888057960549E-003  2.430074933600554E-003 
 2.460641513392959E-003  2.491592573428045E-003  2.522932949871914E-003  2.554667539722148E-003 
 2.586801301572975E-003  2.619339256390060E-003  2.652286488295044E-003  2.685648145359943E-003 
 2.719429440411547E-003  2.753635651845938E-003  2.788272124453246E-003  2.823344270252782E-003 
 2.858857569338685E-003  2.894817570736187E-003  2.931229893268669E-003  2.968100226435608E-003 
 3.005434331301574E-003  3.043238041396410E-003  3.081517263626730E-003  3.120277979198887E-003 
 3.159526244553549E-003  3.199268192312029E-003  3.239510032234518E-003  3.280258052190379E-003 
 3.321518619140631E-003  3.363298180132806E-003  3.405603263308311E-003  3.448440478922460E-003 
 3.491816520377348E-003  3.535738165267702E-003  3.580212276439892E-003  3.625245803064277E-003 
 3.670845781721009E-003  3.717019337499529E-003  3.763773685111867E-003  3.811116130019961E-003 
 3.859054069577148E-003  3.907594994184012E-003  3.956746488458781E-003  4.006516232422434E-003 
 4.056912002698725E-003  4.107941673729290E-003  4.159613219004045E-003  4.211934712307071E-003 
 4.264914328978140E-003  4.318560347190149E-003  4.372881149242587E-003  4.427885222871287E-003 
 4.483581162574664E-003  4.539977670956611E-003  4.597083560086300E-003  4.654907752875094E-003 
 4.713459284470757E-003  4.772747303669224E-003  4.832781074344121E-003  4.893569976894253E-003 
 4.955123509709322E-003  5.017451290654058E-003  5.080563058571044E-003  5.144468674802417E-003 
 5.209178124730730E-003  5.274701519339189E-003  5.341049096791508E-003  5.408231224031649E-003 
 5.476258398403676E-003  5.545141249291988E-003  5.614890539782182E-003  5.685517168342798E-003 
 5.757032170528242E-003  5.829446720703104E-003  5.902772133788178E-003  5.977019867028440E-003 
 6.052201521783267E-003  6.128328845339171E-003  6.205413732745341E-003  6.283468228672265E-003 
 6.362504529293736E-003  6.442534984192524E-003  6.523572098290032E-003  6.605628533800207E-003 
 6.688717112208044E-003  6.772850816272965E-003  6.858042792057401E-003  6.944306350980892E-003 
 7.031654971900024E-003  7.120102303214529E-003  7.209662164999873E-003  7.300348551166669E-003 
 7.392175631647259E-003  7.485157754609792E-003  7.579309448700155E-003  7.674645425312101E-003 
 7.771180580885942E-003  7.868929999236135E-003  7.967908953908170E-003  8.068132910565091E-003 
 8.169617529404033E-003  8.272378667603159E-003  8.376432381799382E-003  8.481794930597246E-003 
 8.588482777109361E-003  8.696512591528805E-003  8.805901253733867E-003  8.916665855925569E-003 
 9.028823705298358E-003  9.142392326744384E-003  9.257389465591808E-003  9.373833090377533E-003 
 9.491741395654838E-003  9.611132804836317E-003  9.732025973072553E-003  9.854439790167042E-003 
 9.978393383527757E-003  1.010390612115585E-002  1.023099761467193E-002  1.035968772238042E-002 
 1.048999655237249E-002  1.062194446566793E-002  1.075555207939664E-002  1.089084027002010E-002 
 1.102783017659334E-002  1.116654320406796E-002  1.130700102663673E-002  1.144922559112019E-002 
 1.159323912039588E-002  1.173906411687077E-002  1.188672336599723E-002  1.203623993983335E-002 
 1.218763720064799E-002  1.234093880457117E-002  1.249616870529041E-002  1.265335115779350E-002 
 1.281251072215843E-002  1.297367226739096E-002  1.313686097531041E-002  1.330210234448440E-002 
 1.346942219421306E-002  1.363884666856331E-002  1.381040224045398E-002  1.398411571579220E-002 
 1.416001423766191E-002  1.433812529056503E-002  1.451847670471595E-002  1.470109666039005E-002 
 1.488601369232695E-002  1.507325669418910E-002  1.526285492307650E-002  1.545483800409815E-002 
 1.564923593500106E-002  1.584607909085742E-002  1.604539822881083E-002  1.624722449288211E-002 
 1.645158941883564E-002  1.665852493910687E-002  1.686806338779188E-002  1.708023750569957E-002 
 1.729508044546754E-002  1.751262577674222E-002  1.773290749142424E-002  1.795596000897967E-002 
 1.818181818181819E-002  1.841051730073882E-002  1.864209310044417E-002  1.887658176512410E-002 
 1.911401993410954E-002  1.935444470759745E-002  1.959789365244785E-002  1.984440480805368E-002 
 2.009401669228451E-002  2.034676830750511E-002  2.060269914666958E-002  2.086184919949223E-002 
 2.112425895869606E-002  2.138996942633983E-002  2.165902212022470E-002  2.193145908038148E-002 
 2.220732287563946E-002  2.248665661027791E-002  2.276950393076118E-002  2.305590903255854E-002 
 2.334591666704985E-002  2.363957214851803E-002  2.393692136122949E-002  2.423801076660369E-002 
 2.454288741047279E-002  2.485159893043267E-002  2.516419356328640E-002  2.548072015258134E-002 
 2.580122815624105E-002  2.612576765429318E-002  2.645438935669458E-002  2.678714461125484E-002 
 2.712408541165947E-002  2.746526440559406E-002  2.781073490297054E-002  2.816055088425698E-002 
 2.851476700891217E-002  2.887343862392625E-002  2.923662177246879E-002  2.960437320264565E-002 
 2.997675037636598E-002  3.035381147832079E-002  3.073561542507440E-002  3.112222187427028E-002 
 3.151369123395265E-002  3.191008467200544E-002  3.231146412570980E-002  3.271789231142199E-002 
 3.312943273437290E-002  3.354614969859092E-002  3.396810831694951E-002  3.439537452134128E-002 
 3.482801507297995E-002  3.526609757283190E-002  3.570969047217905E-002  3.615886308331442E-002 
 3.661368559037232E-002  3.707422906029484E-002  3.754056545393613E-002  3.801276763730648E-002 
 3.849090939295774E-002  3.897506543151200E-002  3.946531140333533E-002  3.996172391035823E-002 
 4.046438051804489E-002  4.097335976751290E-002  4.148874118780554E-002  4.201060530831827E-002 
 4.253903367138168E-002  4.307410884500256E-002  4.361591443576544E-002  4.416453510189616E-002 
 4.472005656649002E-002  4.528256563090603E-002  4.585215018832998E-002  4.642889923750779E-002 
 4.701290289665177E-002  4.760425241752186E-002  4.820304019968378E-002  4.880935980494675E-002 
 4.942330597198266E-002  5.004497463112919E-002  5.067446291937912E-002  5.131186919555821E-002 
 5.195729305569391E-002  5.261083534857749E-002  5.327259819152187E-002  5.394268498631761E-002 
 5.462120043538972E-002  5.530825055815755E-002  5.600394270760060E-002  5.670838558703261E-002 
 5.742168926708670E-002  5.814396520291413E-002  5.887532625159932E-002  5.961588668979410E-002 
 6.036576223157362E-002  6.112507004651692E-002  6.189392877801492E-002  6.267245856180866E-002 
 6.346078104476077E-002  6.425901940386311E-002  6.506729836548328E-002  6.588574422485352E-002 
 6.671448486580447E-002  6.755364978074738E-002  6.840337009090748E-002  6.926377856681204E-002 
 7.013500964903593E-002  7.101719946920826E-002  7.191048587128325E-002  7.281500843307866E-002 
 7.373090848808503E-002  7.465832914754936E-002  7.559741532283654E-002  7.654831374807204E-002 
 7.751117300306945E-002  7.848614353654630E-002  7.947337768963200E-002  8.047302971967156E-002 
 8.148525582432850E-002  8.251021416599100E-002  8.354806489648529E-002  8.459897018209951E-002 
 8.566309422892261E-002  8.674060330850192E-002  8.783166578382329E-002  8.893645213561831E-002 
 9.005513498900214E-002  9.118788914044658E-002  9.233489158509242E-002  9.349632154440524E-002 
 9.467236049417911E-002  9.586319219289262E-002  9.706900271042143E-002  9.828998045711217E-002 
 9.952631621322185E-002  1.007782031587277E-001  1.020458369035120E-001  1.033294155179263E-001 
 1.046291395637406E-001  1.059452121254814E-001  1.072778388421640E-001  1.086272279394241E-001 
 1.099935902620536E-001  1.113771393069453E-001  1.127780912564521E-001  1.141966650121667E-001 
 1.156330822291243E-001  1.170875673504375E-001  1.185603476423657E-001  1.200516532298260E-001 
 1.215617171323504E-001  1.230907753004960E-001  1.246390666527124E-001  1.262068331126734E-001 
 1.277943196470781E-001  1.294017743039272E-001  1.310294482512813E-001  1.326775958165061E-001 
 1.343464745260119E-001  1.360363451454924E-001  1.377474717206700E-001  1.394801216185533E-001 
 1.412345655692142E-001  1.430110777080890E-001  1.448099356188141E-001  1.466314203765977E-001 
 1.484758165921392E-001  1.503434124560995E-001  1.522344997841321E-001  1.541493740624796E-001 
 1.560883344941436E-001  1.580516840456365E-001  1.600397294943202E-001  1.620527814763408E-001 
 1.640911545351660E-001  1.661551671707332E-001  1.682451418892163E-001  1.703614052534170E-001 
 1.725042879337914E-001  1.746741247601183E-001  1.768712547738161E-001  1.790960212809198E-001 
 1.813487719057223E-001  1.836298586450920E-001  1.859396379234728E-001  1.882784706485763E-001 
 1.906467222677742E-001  1.930447628252002E-001  1.954729670195702E-001  1.979317142627299E-001 
 2.004213887389383E-001  2.029423794648977E-001  2.054950803505380E-001  2.080798902605659E-001 
 2.106972130767890E-001  2.133474577612221E-001  2.160310384199892E-001  2.187483743680280E-001 
 2.214998901946087E-001  2.242860158296775E-001  2.271071866110330E-001  2.299638433523497E-001 
 2.328564324120553E-001  2.357854057630753E-001  2.387512210634550E-001  2.417543417278689E-001 
 2.447952370000309E-001  2.478743820260139E-001  2.509922579284928E-001  2.541493518819207E-001 
 2.573461571886511E-001  2.605831733560171E-001  2.638609061743805E-001  2.671798677961627E-001 
 2.705405768158699E-001  2.739435583511235E-001  2.773893441247121E-001  2.808784725476732E-001 
 2.844114888034214E-001  2.879889449329350E-001  2.916113999210123E-001  2.952794197836153E-001 
 2.989935776563102E-001  3.027544538838209E-001  3.065626361107098E-001  3.104187193731975E-001 
 3.143233061921391E-001  3.182770066671689E-001  3.222804385720300E-001  3.263342274511027E-001 
 3.304390067171467E-001  3.345954177502737E-001  3.388041099981640E-001  3.430657410775435E-001 
 3.473809768769393E-001  3.517504916607240E-001  3.561749681744728E-001  3.606550977516424E-001 
 3.651915804215941E-001  3.697851250189749E-001  3.744364492944734E-001  3.791462800269712E-001 
 3.839153531371023E-001  3.887444138022428E-001  3.936342165729467E-001  3.985855254908449E-001 
 4.035991142080300E-001  4.086757661079387E-001  4.138162744277589E-001  4.190214423823744E-001 
 4.242920832898677E-001  4.296290206986041E-001  4.350330885159118E-001  4.405051311383816E-001 
 4.460460035838066E-001  4.516565716247791E-001  4.573377119239705E-001  4.630903121711109E-001 
 4.689152712216922E-001  4.748134992374178E-001  4.807859178284146E-001  4.868334601972388E-001 
 4.929570712846892E-001  4.991577079174566E-001  5.054363389576305E-001  5.117939454540846E-001 
 5.182315207957690E-001  5.247500708669279E-001  5.313506142042719E-001  5.380341821561268E-001 
 5.448018190435823E-001  5.516545823236715E-001  5.585935427545988E-001  5.656197845630486E-001 
 5.727344056135991E-001  5.799385175802639E-001  5.872332461201945E-001  5.946197310495668E-001 
 6.020991265216786E-001  6.096726012072901E-001  6.173413384772285E-001  6.251065365872945E-001 
 6.329694088654918E-001  6.409311839016102E-001  6.489931057391981E-001  6.571564340699445E-001 
 6.654224444305092E-001  6.737924284018290E-001  6.822676938109276E-001  6.908495649352687E-001 
 6.995393827096755E-001  7.083385049358543E-001  7.172483064945555E-001  7.262701795603992E-001 
 7.354055338194075E-001  7.446557966892695E-001  7.540224135423776E-001  7.635068479316729E-001 
 7.731105818193237E-001  7.828351158082898E-001  7.926819693767915E-001  8.026526811157318E-001 
 8.127488089691065E-001  8.229719304774324E-001  8.333236430242453E-001  8.438055640856909E-001 
 8.544193314832601E-001  8.651666036397037E-001  8.760490598381607E-001  8.870684004845534E-001 
 8.982263473732767E-001  9.095246439562322E-001  9.209650556152484E-001  9.325493699379223E-001 
 9.442793969969359E-001  9.561569696328813E-001  9.681839437406481E-001  9.803621985594103E-001 
 9.926936369662598E-001  1.005180185773535E+000  1.017823796029894E+000  1.030626443325160E+000 
 1.043590128099023E+000  1.056716875953601E+000  1.070008737969953E+000  1.083467791028563E+000 
 1.097096138133855E+000  1.110895908742789E+000  1.124869259097599E+000  1.139018372562707E+000 
 1.153345459965879E+000  1.167852759943671E+000  1.182542539291218E+000  1.197417093316432E+000 
 1.212478746198640E+000  1.227729851351748E+000  1.243172791791966E+000  1.258809980510157E+000 
 1.274643860848871E+000  1.290676906884126E+000  1.306911623811983E+000  1.323350548339994E+000 
 1.339996249083561E+000  1.356851326967291E+000  1.373918415631394E+000  1.391200181843198E+000 
 1.408699325913835E+000  1.426418582120166E+000  1.444360719132026E+000  1.462528540444824E+000 
 1.480924884817603E+000  1.499552626716601E+000  1.518414676764387E+000  1.537513982194656E+000 
 1.556853527312739E+000  1.576436333961907E+000  1.596265461995543E+000  1.616344009755242E+000 
 1.636675114554944E+000  1.657261953171135E+000  1.678107742339234E+000  1.699215739256212E+000 
 1.720589242089530E+000  1.742231590492490E+000  1.764146166126063E+000  1.786336393187274E+000 
 1.808805738944252E+000  1.831557714277984E+000  1.854595874230905E+000  1.877923818562379E+000 
 1.901545192311168E+000  1.925463686364981E+000  1.949683038037174E+000  1.974207031650722E+000 
 1.999039499129520E+000  2.024184320597134E+000  2.049645424983077E+000  2.075426790636710E+000 
 2.101532445948868E+000  2.127966469981307E+000  2.154732993104061E+000  2.181836197640826E+000 
 2.209280318522454E+000  2.237069643948666E+000  2.265208516058099E+000  2.293701331606766E+000 
 2.322552542655071E+000  2.351766657263436E+000  2.381348240196704E+000  2.411301913637394E+000 
 2.441632357907919E+000  2.472344312201908E+000  2.503442575324704E+000  2.534932006443187E+000 
 2.566817525845036E+000  2.599104115707528E+000  2.631796820876018E+000  2.664900749652203E+000 
 2.698421074592305E+000  2.732363033315291E+000  2.766731929321266E+000  2.801533132820159E+000 
 2.836772081570820E+000  2.872454281730684E+000  2.908585308716122E+000  2.945170808073606E+000 
 2.982216496361852E+000  3.019728162045020E+000  3.057711666397192E+000  3.096172944418202E+000 
 3.135118005760988E+000  3.174552935670624E+000  3.214483895935135E+000  3.254917125848306E+000 
 3.295858943184570E+000  3.337315745186181E+000  3.379294009562803E+000  3.421800295503645E+000 
 3.464841244702367E+000  3.508423582394847E+000  3.552554118410017E+000  3.597239748233919E+000 
 3.642487454087124E+000  3.688304306015728E+000  3.734697462996061E+000  3.781674174053284E+000 
 3.829241779394083E+000  3.877407711553565E+000  3.926179496556624E+000  3.975564755093894E+000 
 4.025571203712494E+000  4.076206656021765E+000  4.127479023914147E+000  4.179396318801437E+000 
 4.231966652866587E+000  4.285198240331248E+000  4.339099398739267E+000  4.393678550256305E+000 
 4.448944222985829E+000  4.504905052301642E+000  4.561569782197174E+000  4.618947266651764E+000 
 4.677046471014091E+000  4.735876473403037E+000  4.795446466126168E+000  4.855765757116039E+000 
 4.916843771384595E+000  4.978690052495828E+000  5.041314264056986E+000  5.104726191228537E+000 
 5.168935742253108E+000  5.233952950003692E+000  5.299787973551276E+000  5.366451099752227E+000 
 5.433952744855647E+000  5.502303456130906E+000  5.571513913515715E+000  5.641594931284843E+000 
 5.712557459739900E+000  5.784412586920328E+000  5.857171540335937E+000  5.930845688721237E+000 
 6.005446543811798E+000  6.080985762143006E+000  6.157475146871410E+000  6.234926649618989E+000 
 6.313352372340632E+000  6.392764569215069E+000  6.473175648559626E+000  6.554598174769049E+000 
 6.637044870278707E+000  6.720528617552525E+000  6.805062461095858E+000  6.890659609493744E+000 
 6.977333437474768E+000  7.065097488000887E+000  7.153965474383566E+000  7.243951282426472E+000 
 7.335068972595191E+000  7.427332782214192E+000  7.520757127691432E+000  7.615356606770981E+000 
 7.711146000813901E+000  7.808140277107896E+000  7.906354591205975E+000  8.005804289294526E+000 
 8.106504910591221E+000  8.208472189773010E+000  8.311722059434716E+000  8.416270652578538E+000 
 8.522134305134855E+000  8.629329558514772E+000  8.737873162194715E+000  8.847782076333592E+000 
 8.959073474422851E+000  9.071764745969855E+000  9.185873499215074E+000  9.301417563883350E+000 
 9.418414993969863E+000  9.536884070561099E+000  9.656843304691293E+000  9.778311440234853E+000 
 9.901307456835081E+000  1.002585057286980E+001  1.015196024845429E+001  1.027965618848191E+001 
 1.040895834570312E+001  1.053988692384303E+001  1.067246238075835E+001  1.080670543163397E+001 
 1.094263705221968E+001  1.108027848210778E+001  1.121965122805170E+001  1.136077706732657E+001 
 1.150367805113189E+001  1.164837650803711E+001  1.179489504747052E+001  1.194325656325200E+001 
 1.209348423717022E+001  1.224560154260490E+001  1.239963224819446E+001  1.255560042155007E+001 
 1.271353043301611E+001  1.287344695947818E+001  1.303537498821891E+001  1.319933982082221E+001 
 1.336536707712679E+001  1.353348269922922E+001  1.370371295553749E+001  1.387608444487548E+001 
 1.405062410063909E+001  1.422735919500465E+001  1.440631734319022E+001  1.458752650777054E+001 
 1.477101500304626E+001  1.495681149946804E+001  1.514494502811651E+001  1.533544498523825E+001 
 1.552834113683913E+001  1.572366362333531E+001  1.592144296426265E+001  1.612171006304561E+001 
 1.632449621182579E+001  1.652983309635151E+001  1.673775280092875E+001  1.694828781343433E+001 
 1.716147103039235E+001  1.737733576211414E+001  1.759591573790323E+001  1.781724511132553E+001 
 1.804135846554593E+001  1.826829081873202E+001  1.849807762952566E+001  1.873075480258354E+001 
 1.896635869418735E+001  1.920492611792446E+001  1.944649435044024E+001  1.969110113726247E+001 
 1.993878469869927E+001  2.018958373581100E+001  2.044353743645746E+001  2.070068548142109E+001 
 2.096106805060706E+001  2.122472582932157E+001  2.149170001462895E+001  2.176203232178879E+001 
 2.203576499077414E+001  2.231294079287139E+001  2.259360303736358E+001  2.287779557829739E+001 
 2.316556282133553E+001  2.345694973069522E+001  2.375200183617387E+001  2.405076524026325E+001 
 2.435328662535307E+001  2.465961326102524E+001  2.496979301143984E+001  2.528387434281391E+001 
 2.560190633099448E+001  2.592393866912677E+001  2.625002167541874E+001  2.658020630100360E+001 
 2.691454413790084E+001  2.725308742707769E+001  2.759588906661187E+001  2.794300261995695E+001 