<PP_INFO>
Generated using Fritz-Haber code                                                
Author: unknown    Generation date: as well                                     
Info: automatically converted from FHI format                                   
    1        The Pseudo was generated with a Scalar-Relativistic Calculation
nl pn  l   occ               Rcut            Rcut US             E pseu
3S  3  0  2.00      1.00000000000      1.80000000000     -5.55524569980
3P  3  1  6.00      1.00000000000      1.80000000000     -3.78919177275
4S  4  0  2.00      1.00000000000      1.80000000000     -0.87721939090
3D  3  2  2.00      1.00000000000      1.80000000000     -1.16623793573
</PP_INFO>


<PP_HEADER>
   0                   Version Number
  Ti                   Element
   NC                  Norm - Conserving pseudopotential
    F                  Nonlinear Core Correction
SLA  PW   PBE  PBE     PBE  Exchange-Correlation functional
   12.00000000000      Z valence
    0.00000000000      Total energy
    0.00000    0.00000 Suggested cutoff for wfc and rho
    1                  Max angular momentum component
  515                  Number of points in mesh
    3    2             Number of Wavefunctions, Number of Projectors
 Wavefunctions         nl  l   occ
                       3s  0  2.00
                       3p  1  6.00
                       3d  2  2.00
</PP_HEADER>


<PP_MESH>
  <PP_R>
  2.84090909091E-04  2.91107954545E-04  2.98298321023E-04  3.05666289552E-04
  3.13216246904E-04  3.20952688202E-04  3.28880219601E-04  3.37003561025E-04
  3.45327548983E-04  3.53857139442E-04  3.62597410787E-04  3.71553566833E-04
  3.80730939934E-04  3.90134994150E-04  3.99771328506E-04  4.09645680320E-04
  4.19763928624E-04  4.30132097661E-04  4.40756360473E-04  4.51643042577E-04
  4.62798625728E-04  4.74229751784E-04  4.85943226653E-04  4.97946024351E-04
  5.10245291153E-04  5.22848349844E-04  5.35762704085E-04  5.48996042876E-04
  5.62556245135E-04  5.76451384390E-04  5.90689733584E-04  6.05279770004E-04
  6.20230180323E-04  6.35549865777E-04  6.51247947462E-04  6.67333771764E-04
  6.83816915927E-04  7.00707193750E-04  7.18014661436E-04  7.35749623573E-04
  7.53922639275E-04  7.72544528465E-04  7.91626378319E-04  8.11179549863E-04
  8.31215684745E-04  8.51746712158E-04  8.72784855948E-04  8.94342641890E-04
  9.16432905145E-04  9.39068797902E-04  9.62263797210E-04  9.86031713001E-04
  1.01038669631E-03  1.03534324771E-03  1.06091622593E-03  1.08712085671E-03
  1.11397274187E-03  1.14148786859E-03  1.16968261895E-03  1.19857377964E-03
  1.22817855199E-03  1.25851456223E-03  1.28959987192E-03  1.32145298875E-03
  1.35409287757E-03  1.38753897165E-03  1.42181118425E-03  1.45692992050E-03
  1.49291608954E-03  1.52979111695E-03  1.56757695754E-03  1.60629610839E-03
  1.64597162227E-03  1.68662712134E-03  1.72828681123E-03  1.77097549547E-03
  1.81471859021E-03  1.85954213939E-03  1.90547283023E-03  1.95253800914E-03
  2.00076569796E-03  2.05018461070E-03  2.10082417059E-03  2.15271452760E-03
  2.20588657643E-03  2.26037197487E-03  2.31620316265E-03  2.37341338077E-03
  2.43203669127E-03  2.49210799754E-03  2.55366306508E-03  2.61673854279E-03
  2.68137198480E-03  2.74760187282E-03  2.81546763908E-03  2.88500968977E-03
  2.95626942910E-03  3.02928928400E-03  3.10411272932E-03  3.18078431373E-03
  3.25934968628E-03  3.33985562353E-03  3.42235005743E-03  3.50688210385E-03
  3.59350209182E-03  3.68226159349E-03  3.77321345484E-03  3.86641182718E-03
  3.96191219931E-03  4.05977143063E-03  4.16004778497E-03  4.26280096526E-03
  4.36809214910E-03  4.47598402518E-03  4.58654083061E-03  4.69982838912E-03
  4.81591415033E-03  4.93486722985E-03  5.05675845042E-03  5.18166038415E-03
  5.30964739564E-03  5.44079568631E-03  5.57518333976E-03  5.71289036825E-03
  5.85399876035E-03  5.99859252973E-03  6.14675776521E-03  6.29858268201E-03
  6.45415767426E-03  6.61357536882E-03  6.77693068042E-03  6.94432086823E-03
  7.11584559368E-03  7.29160697984E-03  7.47170967224E-03  7.65626090115E-03
  7.84537054541E-03  8.03915119788E-03  8.23771823246E-03  8.44118987281E-03
  8.64968726266E-03  8.86333453805E-03  9.08225890114E-03  9.30659069600E-03
  9.53646348619E-03  9.77201413430E-03  1.00133828834E-02  1.02607134406E-02
  1.05141530626E-02  1.07738526433E-02  1.10399668036E-02  1.13126539836E-02
  1.15920765370E-02  1.18784008275E-02  1.21717973279E-02  1.24724407219E-02
  1.27805100077E-02  1.30961886049E-02  1.34196644635E-02  1.37511301757E-02
  1.40907830911E-02  1.44388254334E-02  1.47954644216E-02  1.51609123928E-02
  1.55353869289E-02  1.59191109861E-02  1.63123130274E-02  1.67152271592E-02
  1.71280932700E-02  1.75511571738E-02  1.79846707560E-02  1.84288921237E-02
  1.88840857591E-02  1.93505226774E-02  1.98284805875E-02  2.03182440580E-02
  2.08201046862E-02  2.13343612720E-02  2.18613199954E-02  2.24012945993E-02
  2.29546065759E-02  2.35215853583E-02  2.41025685167E-02  2.46979019590E-02
  2.53079401374E-02  2.59330462588E-02  2.65735925014E-02  2.72299602362E-02
  2.79025402540E-02  2.85917329983E-02  2.92979488034E-02  3.00216081388E-02
  3.07631418598E-02  3.15229914638E-02  3.23016093529E-02  3.30994591040E-02
  3.39170157438E-02  3.47547660327E-02  3.56132087537E-02  3.64928550099E-02
  3.73942285287E-02  3.83178659733E-02  3.92643172629E-02  4.02341458993E-02
  4.12279293030E-02  4.22462591568E-02  4.32897417579E-02  4.43589983793E-02
  4.54546656393E-02  4.65773958806E-02  4.77278575589E-02  4.89067356406E-02
  5.01147320109E-02  5.13525658916E-02  5.26209742691E-02  5.39207123335E-02
  5.52525539282E-02  5.66172920102E-02  5.80157391228E-02  5.94487278792E-02
  6.09171114578E-02  6.24217641108E-02  6.39635816843E-02  6.55434821519E-02
  6.71624061611E-02  6.88213175933E-02  7.05212041378E-02  7.22630778800E-02
  7.40479759037E-02  7.58769609085E-02  7.77511218429E-02  7.96715745524E-02
  8.16394624439E-02  8.36559571662E-02  8.57222593083E-02  8.78395991132E-02
  9.00092372113E-02  9.22324653704E-02  9.45106072650E-02  9.68450192645E-02
  9.92370912403E-02  1.01688247394E-01  1.04199947105E-01  1.06773685798E-01
  1.09410995837E-01  1.12113447434E-01  1.14882649586E-01  1.17720251031E-01
  1.20627941231E-01  1.23607451380E-01  1.26660555429E-01  1.29789071148E-01
  1.32994861205E-01  1.36279834277E-01  1.39645946184E-01  1.43095201054E-01
  1.46629652520E-01  1.50251404938E-01  1.53962614640E-01  1.57765491221E-01
  1.61662298854E-01  1.65655357636E-01  1.69747044970E-01  1.73939796980E-01
  1.78236109966E-01  1.82638541882E-01  1.87149713867E-01  1.91772311799E-01
  1.96509087901E-01  2.01362862372E-01  2.06336525072E-01  2.11433037242E-01
  2.16655433261E-01  2.22006822463E-01  2.27490390978E-01  2.33109403635E-01
  2.38867205905E-01  2.44767225891E-01  2.50812976370E-01  2.57008056886E-01
  2.63356155891E-01  2.69861052942E-01  2.76526620950E-01  2.83356828487E-01
  2.90355742151E-01  2.97527528982E-01  3.04876458948E-01  3.12406907484E-01
  3.20123358099E-01  3.28030405044E-01  3.36132756048E-01  3.44435235123E-01
  3.52942785430E-01  3.61660472230E-01  3.70593485894E-01  3.79747144996E-01
  3.89126899477E-01  3.98738333894E-01  4.08587170742E-01  4.18679273859E-01
  4.29020651923E-01  4.39617462026E-01  4.50476013338E-01  4.61602770867E-01
  4.73004359308E-01  4.84687566983E-01  4.96659349887E-01  5.08926835829E-01
  5.21497328674E-01  5.34378312692E-01  5.47577457016E-01  5.61102620204E-01
  5.74961854923E-01  5.89163412740E-01  6.03715749035E-01  6.18627528036E-01
  6.33907627978E-01  6.49565146389E-01  6.65609405505E-01  6.82049957821E-01
  6.98896591779E-01  7.16159337596E-01  7.33848473235E-01  7.51974530524E-01
  7.70548301428E-01  7.89580844473E-01  8.09083491331E-01  8.29067853567E-01
  8.49545829550E-01  8.70529611540E-01  8.92031692945E-01  9.14064875761E-01
  9.36642278192E-01  9.59777342464E-01  9.83483842823E-01  1.00777589374E+00
  1.03266795832E+00  1.05817485689E+00  1.08431177585E+00  1.11109427671E+00
  1.13853830535E+00  1.16666020149E+00  1.19547670847E+00  1.22500498317E+00
  1.25526260625E+00  1.28626759263E+00  1.31803840216E+00  1.35059395070E+00
  1.38395362128E+00  1.41813727573E+00  1.45316526644E+00  1.48905844852E+00
  1.52583819220E+00  1.56352639554E+00  1.60214549751E+00  1.64171849130E+00
  1.68226893804E+00  1.72382098081E+00  1.76639935903E+00  1.81002942320E+00
  1.85473714995E+00  1.90054915756E+00  1.94749272175E+00  1.99559579198E+00
  2.04488700804E+00  2.09539571714E+00  2.14715199135E+00  2.20018664554E+00
  2.25453125568E+00  2.31021817770E+00  2.36728056668E+00  2.42575239668E+00
  2.48566848088E+00  2.54706449236E+00  2.60997698532E+00  2.67444341686E+00
  2.74050216925E+00  2.80819257283E+00  2.87755492938E+00  2.94863053614E+00
  3.02146171038E+00  3.09609181463E+00  3.17256528245E+00  3.25092764492E+00
  3.33122555775E+00  3.41350682903E+00  3.49782044771E+00  3.58421661277E+00
  3.67274676310E+00  3.76346360815E+00  3.85642115927E+00  3.95167476190E+00
  4.04928112852E+00  4.14929837240E+00  4.25178604220E+00  4.35680515744E+00
  4.46441824483E+00  4.57468937547E+00  4.68768420305E+00  4.80347000286E+00
  4.92211571193E+00  5.04369197002E+00  5.16827116168E+00  5.29592745937E+00
  5.42673686762E+00  5.56077726825E+00  5.69812846677E+00  5.83887223990E+00
  5.98309238423E+00  6.13087476612E+00  6.28230737284E+00  6.43748036495E+00
  6.59648612997E+00  6.75941933738E+00  6.92637699501E+00  7.09745850679E+00
  7.27276573191E+00  7.45240304548E+00  7.63647740071E+00  7.82509839250E+00
  8.01837832280E+00  8.21643226737E+00  8.41937814438E+00  8.62733678454E+00
  8.84043200312E+00  9.05879067360E+00  9.28254280324E+00  9.51182161048E+00
  9.74676360425E+00  9.98750866528E+00  1.02342001293E+01  1.04869848725E+01
  1.07460133989E+01  1.10114399298E+01  1.12834224961E+01  1.15621230317E+01
  1.18477074706E+01  1.21403458451E+01  1.24402123875E+01  1.27474856335E+01
  1.30623485286E+01  1.33849885373E+01  1.37155977542E+01  1.40543730187E+01
  1.44015160322E+01  1.47572334782E+01  1.51217371452E+01  1.54952440526E+01
  1.58779765807E+01  1.62701626023E+01  1.66720356186E+01  1.70838348983E+01
  1.75058056203E+01  1.79381990192E+01  1.83812725349E+01  1.88352899665E+01
  1.93005216287E+01  1.97772445129E+01  2.02657424524E+01  2.07663062910E+01
  2.12792340564E+01  2.18048311376E+01  2.23434104667E+01  2.28952927052E+01
  2.34608064350E+01  2.40402883539E+01  2.46340834763E+01  2.52425453382E+01
  2.58660362080E+01  2.65049273023E+01  2.71595990067E+01  2.78304411022E+01
  2.85178529974E+01  2.92222439664E+01  2.99440333924E+01  3.06836510172E+01
  3.14415371973E+01  3.22181431661E+01  3.30139313023E+01  3.38293754055E+01
  3.46649609780E+01  3.55211855141E+01  3.63985587963E+01  3.72976031986E+01
  3.82188539976E+01  3.91628596914E+01  4.01301823257E+01  4.11213978292E+01
  4.21370963556E+01  4.31778826355E+01  4.42443763366E+01  4.53372124322E+01
  4.64570415792E+01  4.76045305062E+01  4.87803624097E+01  4.99852373613E+01
  5.12198727241E+01  5.24850035804E+01  5.37813831688E+01  5.51097833331E+01
  5.64709949814E+01  5.78658285574E+01  5.92951145228E+01  6.07597038515E+01
  6.22604685367E+01  6.37983021095E+01  6.53741201716E+01  6.69888609399E+01
  6.86434858051E+01  7.03389799045E+01  7.20763527081E+01  7.38566386200E+01
  7.56808975939E+01  7.75502157645E+01  7.94657060939E+01
  </PP_R>
  <PP_RAB>
  6.93178602941E-06  7.10300114434E-06  7.27844527261E-06  7.45822287084E-06
  7.64244097575E-06  7.83120926785E-06  8.02464013676E-06  8.22284874814E-06
  8.42595311222E-06  8.63407415409E-06  8.84733578570E-06  9.06586497961E-06
  9.28979184460E-06  9.51924970316E-06  9.75437517083E-06  9.99530823755E-06
  1.02421923510E-05  1.04951745021E-05  1.07544053123E-05  1.10200391235E-05
  1.12922340899E-05  1.15711522719E-05  1.18569597330E-05  1.21498266384E-05
  1.24499273564E-05  1.27574405621E-05  1.30725493439E-05  1.33954413127E-05
  1.37263087132E-05  1.40653485384E-05  1.44127626473E-05  1.47687578847E-05
  1.51335462044E-05  1.55073447957E-05  1.58903762121E-05  1.62828685046E-05
  1.66850553566E-05  1.70971762239E-05  1.75194764767E-05  1.79522075456E-05
  1.83956270720E-05  1.88499990607E-05  1.93155940375E-05  1.97926892102E-05
  2.02815686337E-05  2.07825233790E-05  2.12958517064E-05  2.18218592436E-05
  2.23608591669E-05  2.29131723883E-05  2.34791277463E-05  2.40590622016E-05
  2.46533210380E-05  2.52622580677E-05  2.58862358419E-05  2.65256258672E-05
  2.71808088261E-05  2.78521748042E-05  2.85401235218E-05  2.92450645728E-05
  2.99674176678E-05  3.07076128841E-05  3.14660909224E-05  3.22433033682E-05
  3.30397129614E-05  3.38557938715E-05  3.46920319801E-05  3.55489251700E-05
  3.64269836217E-05  3.73267301172E-05  3.82487003511E-05  3.91934432498E-05
  4.01615212980E-05  4.11535108741E-05  4.21700025927E-05  4.32116016567E-05
  4.42789282176E-05  4.53726177446E-05  4.64933214029E-05  4.76417064416E-05
  4.88184565907E-05  5.00242724685E-05  5.12598719984E-05  5.25259908368E-05
  5.38233828105E-05  5.51528203659E-05  5.65150950289E-05  5.79110178761E-05
  5.93414200177E-05  6.08071530921E-05  6.23090897735E-05  6.38481242909E-05
  6.54251729609E-05  6.70411747330E-05  6.86970917489E-05  7.03939099151E-05
  7.21326394900E-05  7.39143156854E-05  7.57399992829E-05  7.76107772651E-05
  7.95277634636E-05  8.14920992211E-05  8.35049540719E-05  8.55675264375E-05
  8.76810443405E-05  8.98467661357E-05  9.20659812592E-05  9.43400109964E-05
  9.66702092680E-05  9.90579634369E-05  1.01504695134E-04  1.04011861104E-04
  1.06580954073E-04  1.09213503638E-04  1.11911077178E-04  1.14675280785E-04
  1.17507760220E-04  1.20410201897E-04  1.23384333884E-04  1.26431926931E-04
  1.29554795526E-04  1.32754798976E-04  1.36033842511E-04  1.39393878421E-04
  1.42836907218E-04  1.46364978826E-04  1.49980193803E-04  1.53684704590E-04
  1.57480716793E-04  1.61370490498E-04  1.65356341613E-04  1.69440643251E-04
  1.73625827139E-04  1.77914385070E-04  1.82308870381E-04  1.86811899479E-04
  1.91426153397E-04  1.96154379385E-04  2.00999392556E-04  2.05964077552E-04
  2.11051390268E-04  2.16264359608E-04  2.21606089290E-04  2.27079759695E-04
  2.32688629760E-04  2.38436038915E-04  2.44325409076E-04  2.50360246680E-04
  2.56544144773E-04  2.62880785149E-04  2.69373940542E-04  2.76027476874E-04
  2.82845355553E-04  2.89831635835E-04  2.96990477240E-04  3.04326142028E-04
  3.11842997736E-04  3.19545519780E-04  3.27438294118E-04  3.35526019983E-04
  3.43813512677E-04  3.52305706440E-04  3.61007657389E-04  3.69924546526E-04
  3.79061682826E-04  3.88424506391E-04  3.98018591699E-04  4.07849650914E-04
  4.17923537292E-04  4.28246248663E-04  4.38823931005E-04  4.49662882101E-04
  4.60769555289E-04  4.72150563304E-04  4.83812682218E-04  4.95762855469E-04
  5.08008197999E-04  5.20556000489E-04  5.33413733701E-04  5.46589052924E-04
  5.60089802531E-04  5.73924020653E-04  5.88099943964E-04  6.02626012579E-04
  6.17510875090E-04  6.32763393705E-04  6.48392649529E-04  6.64407947973E-04
  6.80818824288E-04  6.97635049248E-04  7.14866634964E-04  7.32523840848E-04
  7.50617179717E-04  7.69157424056E-04  7.88155612430E-04  8.07623056057E-04
  8.27571345541E-04  8.48012357776E-04  8.68958263013E-04  8.90421532110E-04
  9.12414943953E-04  9.34951593069E-04  9.58044897417E-04  9.81708606384E-04
  1.00595680896E-03  1.03080394214E-03  1.05626479951E-03  1.08235454006E-03
  1.10908869720E-03  1.13648318802E-03  1.16455432277E-03  1.19331881454E-03
  1.22279378926E-03  1.25299679585E-03  1.28394581671E-03  1.31565927838E-03
  1.34815606256E-03  1.38145551730E-03  1.41557746858E-03  1.45054223205E-03
  1.48637062519E-03  1.52308397963E-03  1.56070415393E-03  1.59925354653E-03
  1.63875510913E-03  1.67923236032E-03  1.72070939962E-03  1.76321092179E-03
  1.80676223156E-03  1.85138925868E-03  1.89711857337E-03  1.94397740213E-03
  1.99199364397E-03  2.04119588697E-03  2.09161342538E-03  2.14327627699E-03
  2.19621520103E-03  2.25046171649E-03  2.30604812089E-03  2.36300750948E-03
  2.42137379496E-03  2.48118172770E-03  2.54246691637E-03  2.60526584920E-03
  2.66961591568E-03  2.73555542880E-03  2.80312364789E-03  2.87236080199E-03
  2.94330811380E-03  3.01600782421E-03  3.09050321747E-03  3.16683864694E-03
  3.24505956152E-03  3.32521253269E-03  3.40734528225E-03  3.49150671072E-03
  3.57774692647E-03  3.66611727556E-03  3.75667037226E-03  3.84946013046E-03
  3.94454179568E-03  4.04197197803E-03  4.14180868589E-03  4.24411136043E-03
  4.34894091104E-03  4.45635975154E-03  4.56643183740E-03  4.67922270378E-03
  4.79479950457E-03  4.91323105233E-03  5.03458785932E-03  5.15894217945E-03
  5.28636805128E-03  5.41694134215E-03  5.55073979330E-03  5.68784306619E-03
  5.82833278993E-03  5.97229260984E-03  6.11980823730E-03  6.27096750076E-03
  6.42586039803E-03  6.58457914986E-03  6.74721825487E-03  6.91387454576E-03
  7.08464724704E-03  7.25963803404E-03  7.43895109348E-03  7.62269318549E-03
  7.81097370718E-03  8.00390475774E-03  8.20160120526E-03  8.40418075503E-03
  8.61176401968E-03  8.82447459096E-03  9.04243911336E-03  9.26578735946E-03
  9.49465230724E-03  9.72917021923E-03  9.96948072364E-03  1.02157268975E-02
  1.04680553519E-02  1.07266163191E-02  1.09915637422E-02  1.12630553666E-02
  1.15412528341E-02  1.18263217791E-02  1.21184319271E-02  1.24177571957E-02
  1.27244757984E-02  1.30387703506E-02  1.33608279783E-02  1.36908404294E-02
  1.40290041880E-02  1.43755205914E-02  1.47305959500E-02  1.50944416700E-02
  1.54672743792E-02  1.58493160564E-02  1.62407941630E-02  1.66419417788E-02
  1.70529977408E-02  1.74742067850E-02  1.79058196926E-02  1.83480934390E-02
  1.88012913469E-02  1.92656832432E-02  1.97415456193E-02  2.02291617961E-02
  2.07288220924E-02  2.12408239981E-02  2.17654723509E-02  2.23030795179E-02
  2.28539655820E-02  2.34184585319E-02  2.39968944576E-02  2.45896177508E-02
  2.51969813092E-02  2.58193467475E-02  2.64570846122E-02  2.71105746021E-02
  2.77802057948E-02  2.84663768779E-02  2.91694963868E-02  2.98899829476E-02
  3.06282655264E-02  3.13847836849E-02  3.21599878419E-02  3.29543395416E-02
  3.37683117283E-02  3.46023890279E-02  3.54570680369E-02  3.63328576174E-02
  3.72302792006E-02  3.81498670968E-02  3.90921688141E-02  4.00577453838E-02
  4.10471716948E-02  4.20610368357E-02  4.30999444455E-02  4.41645130733E-02
  4.52553765462E-02  4.63731843469E-02  4.75186020003E-02  4.86923114697E-02
  4.98950115630E-02  5.11274183486E-02  5.23902655818E-02  5.36843051417E-02
  5.50103074787E-02  5.63690620734E-02  5.77613779066E-02  5.91880839409E-02
  6.06500296143E-02  6.21480853458E-02  6.36831430538E-02  6.52561166872E-02
  6.68679427694E-02  6.85195809558E-02  7.02120146054E-02  7.19462513662E-02
  7.37233237749E-02  7.55442898722E-02  7.74102338320E-02  7.93222666076E-02
  8.12815265929E-02  8.32891802997E-02  8.53464230531E-02  8.74544797025E-02
  8.96146053512E-02  9.18280861033E-02  9.40962398301E-02  9.64204169539E-02
  9.88020012527E-02  1.01242410684E-01  1.03743098227E-01  1.06305552754E-01
  1.08931299907E-01  1.11621903014E-01  1.14378964019E-01  1.17204124430E-01
  1.20099066304E-01  1.23065513241E-01  1.26105231418E-01  1.29220030634E-01
  1.32411765391E-01  1.35682335996E-01  1.39033689695E-01  1.42467821831E-01
  1.45986777030E-01  1.49592650423E-01  1.53287588888E-01  1.57073792334E-01
  1.60953515004E-01  1.64929066825E-01  1.69002814775E-01  1.73177184300E-01
  1.77454660753E-01  1.81837790873E-01  1.86329184308E-01  1.90931515160E-01
  1.95647523585E-01  2.00480017417E-01  2.05431873847E-01  2.10506041131E-01
  2.15705540347E-01  2.21033467194E-01  2.26492993834E-01  2.32087370781E-01
  2.37819928840E-01  2.43694081082E-01  2.49713324885E-01  2.55881244009E-01
  2.62201510736E-01  2.68677888051E-01  2.75314231886E-01  2.82114493414E-01
  2.89082721401E-01  2.96223064620E-01  3.03539774316E-01  3.11037206742E-01
  3.18719825748E-01  3.26592205444E-01  3.34659032919E-01  3.42925111032E-01
  3.51395361274E-01  3.60074826698E-01  3.68968674917E-01  3.78082201187E-01
  3.87420831557E-01  3.96990126096E-01  4.06795782211E-01  4.16843638031E-01
  4.27139675891E-01  4.37690025885E-01  4.48500969525E-01  4.59578943472E-01
  4.70930543376E-01  4.82562527797E-01  4.94481822234E-01  5.06695523243E-01
  5.19210902667E-01  5.32035411963E-01  5.45176686638E-01  5.58642550798E-01
  5.72441021803E-01  5.86580315042E-01  6.01068848823E-01  6.15915249389E-01
  6.31128356049E-01  6.46717226443E-01  6.62691141936E-01  6.79059613142E-01
  6.95832385587E-01  7.13019445511E-01  7.30631025815E-01  7.48677612153E-01
  7.67169949173E-01  7.86119046917E-01  8.05536187376E-01  8.25432931204E-01
  8.45821124605E-01  8.66712906383E-01  8.88120715171E-01  9.10057296835E-01
  9.32535712067E-01  9.55569344155E-01  9.79171906956E-01  1.00335745306E+00
  1.02814038215E+00  1.05353544959E+00  1.07955777519E+00  1.10622285224E+00
  1.13354655669E+00  1.16154515664E+00  1.19023532201E+00  1.21963413446E+00
  1.24975909758E+00  1.28062814729E+00  1.31225966253E+00  1.34467247620E+00
  1.37788588636E+00  1.41191966775E+00  1.44679408355E+00  1.48252989741E+00
  1.51914838587E+00  1.55667135101E+00  1.59512113338E+00  1.63452062537E+00
  1.67489328482E+00  1.71626314895E+00  1.75865484873E+00  1.80209362349E+00
  1.84660533599E+00  1.89221648779E+00  1.93895423504E+00
  </PP_RAB>
</PP_MESH>


<PP_LOCAL>
 -4.76459691035E+01 -4.76460312136E+01 -4.76460963742E+01 -4.76461647389E+01
 -4.76462364692E+01 -4.76463117344E+01 -4.76463907124E+01 -4.76464735897E+01
 -4.76465605625E+01 -4.76466518363E+01 -4.76467476271E+01 -4.76468481615E+01
 -4.76469536776E+01 -4.76470644251E+01 -4.76471806663E+01 -4.76473026764E+01
 -4.76474307445E+01 -4.76475651738E+01 -4.76477062828E+01 -4.76478544058E+01
 -4.76480098938E+01 -4.76481731150E+01 -4.76483444563E+01 -4.76485243236E+01
 -4.76487131429E+01 -4.76489113616E+01 -4.76491194493E+01 -4.76493378986E+01
 -4.76495672271E+01 -4.76498079778E+01 -4.76500607207E+01 -4.76503260540E+01
 -4.76506046058E+01 -4.76508970353E+01 -4.76512040343E+01 -4.76515263290E+01
 -4.76518646814E+01 -4.76522198916E+01 -4.76525927989E+01 -4.76529842844E+01
 -4.76533952728E+01 -4.76538267343E+01 -4.76542796874E+01 -4.76547552005E+01
 -4.76552543950E+01 -4.76557784476E+01 -4.76563285928E+01 -4.76569061262E+01
 -4.76575124070E+01 -4.76581488613E+01 -4.76588169852E+01 -4.76595183483E+01
 -4.76602545973E+01 -4.76610274594E+01 -4.76618387466E+01 -4.76626903594E+01
 -4.76635842911E+01 -4.76645226323E+01 -4.76655075755E+01 -4.76665414199E+01
 -4.76676265764E+01 -4.76687655730E+01 -4.76699610600E+01 -4.76712158162E+01
 -4.76725327544E+01 -4.76739149278E+01 -4.76753655368E+01 -4.76768879351E+01
 -4.76784856375E+01 -4.76801623265E+01 -4.76819218607E+01 -4.76837682819E+01
 -4.76857058242E+01 -4.76877389217E+01 -4.76898722182E+01 -4.76921105757E+01
 -4.76944590845E+01 -4.76969230729E+01 -4.76995081173E+01 -4.77022200530E+01
 -4.77050649850E+01 -4.77080492994E+01 -4.77111796750E+01 -4.77144630952E+01
 -4.77179068605E+01 -4.77215186008E+01 -4.77253062889E+01 -4.77292782533E+01
 -4.77334431921E+01 -4.77378101866E+01 -4.77423887156E+01 -4.77471886696E+01
 -4.77522203651E+01 -4.77574945598E+01 -4.77630224666E+01 -4.77688157691E+01
 -4.77748866357E+01 -4.77812477347E+01 -4.77879122489E+01 -4.77948938894E+01
 -4.78022069101E+01 -4.78098661206E+01 -4.78178868999E+01 -4.78262852077E+01
 -4.78350775965E+01 -4.78442812216E+01 -4.78539138504E+01 -4.78639938700E+01
 -4.78745402936E+01 -4.78855727648E+01 -4.78971115596E+01 -4.79091775868E+01
 -4.79217923846E+01 -4.79349781154E+01 -4.79487575563E+01 -4.79631540866E+01
 -4.79781916708E+01 -4.79938948373E+01 -4.80102886516E+01 -4.80273986853E+01
 -4.80452509777E+01 -4.80638719917E+01 -4.80832885629E+01 -4.81035278407E+01
 -4.81246172214E+01 -4.81465842726E+01 -4.81694566482E+01 -4.81932619936E+01
 -4.82180278403E+01 -4.82437814891E+01 -4.82705498819E+01 -4.82983594614E+01
 -4.83272360172E+01 -4.83572045196E+01 -4.83882889391E+01 -4.84205120521E+01
 -4.84538952325E+01 -4.84884582287E+01 -4.85242189268E+01 -4.85611930986E+01
 -4.85993941371E+01 -4.86388327772E+01 -4.86795168053E+01 -4.87214507560E+01
 -4.87646355990E+01 -4.88090684169E+01 -4.88547420757E+01 -4.89016448906E+01
 -4.89497602886E+01 -4.89990664712E+01 -4.90495360806E+01 -4.91011358722E+01
 -4.91538263963E+01 -4.92075616957E+01 -4.92622890200E+01 -4.93179485638E+01
 -4.93744732325E+01 -4.94317884403E+01 -4.94898119459E+01 -4.95484537305E+01
 -4.96076159240E+01 -4.96671927825E+01 -4.97270707237E+01 -4.97871284227E+01
 -4.98472369737E+01 -4.99072601194E+01 -4.99670545526E+01 -5.00264702909E+01
 -5.00853511255E+01 -5.01435351471E+01 -5.02008553449E+01 -5.02571402810E+01
 -5.03122148359E+01 -5.03659010223E+01 -5.04180188643E+01 -5.04683873364E+01
 -5.05168253560E+01 -5.05631528253E+01 -5.06071917125E+01 -5.06487671683E+01
 -5.06877086669E+01 -5.07238511646E+01 -5.07570362676E+01 -5.07871134002E+01
 -5.08139409635E+01 -5.08373874782E+01 -5.08573326999E+01 -5.08736686999E+01
 -5.08863009016E+01 -5.08951490633E+01 -5.09001481980E+01 -5.09012494210E+01
 -5.08984207140E+01 -5.08916475963E+01 -5.08809336914E+01 -5.08663011781E+01
 -5.08477911139E+01 -5.08254636184E+01 -5.07993979068E+01 -5.07696921586E+01
 -5.07364632149E+01 -5.06998460916E+01 -5.06599933027E+01 -5.06170739889E+01
 -5.05712728482E+01 -5.05227888718E+01 -5.04718338899E+01 -5.04186309385E+01
 -5.03634124623E+01 -5.03064183736E+01 -5.02478939924E+01 -5.01880878961E+01
 -5.01272497126E+01 -5.00656278920E+01 -5.00034674945E+01 -4.99410080338E+01
 -4.98784814119E+01 -4.98161099842E+01 -4.97541047852E+01 -4.96926639462E+01
 -4.96319713266E+01 -4.95721953784E+01 -4.95134882558E+01 -4.94559851733E+01
 -4.93998040135E+01 -4.93450451745E+01 -4.92917916466E+01 -4.92401092984E+01
 -4.91900473504E+01 -4.91416390124E+01 -4.90949022559E+01 -4.90498406944E+01
 -4.90064445425E+01 -4.89646916263E+01 -4.89245484189E+01 -4.88859710764E+01
 -4.88489064535E+01 -4.88132930785E+01 -4.87790620739E+01 -4.87461380085E+01
 -4.87144396728E+01 -4.86838807718E+01 -4.86543705309E+01 -4.86258142169E+01
 -4.85981135751E+01 -4.85711671874E+01 -4.85448707593E+01 -4.85191173440E+01
 -4.84937975140E+01 -4.84687994925E+01 -4.84440092565E+01 -4.84193106258E+01
 -4.83945853526E+01 -4.83697132240E+01 -4.83445721932E+01 -4.83190385526E+01
 -4.82929871600E+01 -4.82662917302E+01 -4.82388252002E+01 -4.82104601732E+01
 -4.81810694459E+01 -4.81505266157E+01 -4.81187067621E+01 -4.80854871918E+01
 -4.80507482278E+01 -4.80143740203E+01 -4.79762533493E+01 -4.79362803812E+01
 -4.78943553390E+01 -4.78503850404E+01 -4.78042832537E+01 -4.77559708235E+01
 -4.77053755177E+01 -4.76524315532E+01 -4.75970787657E+01 -4.75392613971E+01
 -4.74789264912E+01 -4.74160218996E+01 -4.73504939178E+01 -4.72822845879E+01
 -4.72113287193E+01 -4.71375506899E+01 -4.70608611015E+01 -4.69811533677E+01
 -4.68983003113E+01 -4.68121508461E+01 -4.67225268086E+01 -4.66292199946E+01
 -4.65319894411E+01 -4.64305589838E+01 -4.63246151038E+01 -4.62138050702E+01
 -4.60977353753E+01 -4.59759704545E+01 -4.58480316804E+01 -4.57133966208E+01
 -4.55714985479E+01 -4.54217261863E+01 -4.52634236796E+01 -4.50958907448E+01
 -4.49183829576E+01 -4.47301120766E+01 -4.45302462532E+01 -4.43179098956E+01
 -4.40921828452E+01 -4.38520983945E+01 -4.35966395364E+01 -4.33247327202E+01
 -4.30352383676E+01 -4.27269375903E+01 -4.23985151150E+01 -4.20485395992E+01
 -4.16754445162E+01 -4.12775156809E+01 -4.08528949361E+01 -4.03996124618E+01
 -3.99156606126E+01 -3.93991175348E+01 -3.88483171686E+01 -3.82620446195E+01
 -3.76397180789E+01 -3.69815102305E+01 -3.62883719726E+01 -3.55619495369E+01
 -3.48044214064E+01 -3.40183066042E+01 -3.32062990530E+01 -3.23711649047E+01
 -3.15157128457E+01 -3.06428247557E+01 -2.97555229350E+01 -2.88570500071E+01
 -2.79509438977E+01 -2.70410982086E+01 -2.61318050214E+01 -2.52277818773E+01
 -2.43341874812E+01 -2.34566311149E+01 -2.26011766233E+01 -2.17741728125E+01
 -2.09814946326E+01 -2.02285823716E+01 -1.95203645346E+01 -1.88610803365E+01
 -1.82540880650E+01 -1.77016635884E+01 -1.72047884702E+01 -1.67629282860E+01
 -1.63738055121E+01 -1.60331794442E+01 -1.57346600865E+01 -1.54696058681E+01
 -1.52271880940E+01 -1.49947486787E+01 -1.47586306896E+01 -1.45057203561E+01
 -1.42260010097E+01 -1.39164846374E+01 -1.35869675332E+01 -1.32594575282E+01
 -1.29398422384E+01 -1.26279313908E+01 -1.23235392602E+01 -1.20264845785E+01
 -1.17365904397E+01 -1.14536842031E+01 -1.11775973951E+01 -1.09081656096E+01
 -1.06452284106E+01 -1.03886292349E+01 -1.01382152979E+01 -9.89383750096E+00
 -9.65535034172E+00 -9.42261182652E+00 -9.19548338529E+00 -8.97382978867E+00
 -8.75751906729E+00 -8.54642243298E+00 -8.34041420209E+00 -8.13937172054E+00
 -7.94317529083E+00 -7.75170810073E+00 -7.56485615373E+00 -7.38250820115E+00
 -7.20455567596E+00 -7.03089262804E+00 -6.86141566121E+00 -6.69602387158E+00
 -6.53461878753E+00 -6.37710431105E+00 -6.22338666053E+00 -6.07337431495E+00
 -5.92697795936E+00 -5.78411043169E+00 -5.64468667092E+00 -5.50862366636E+00
 -5.37584040828E+00 -5.24625783964E+00 -5.11979880906E+00 -4.99638802484E+00
 -4.87595201019E+00 -4.75841905942E+00 -4.64371919530E+00 -4.53178412735E+00
 -4.42254721124E+00 -4.31594340903E+00 -4.21190925054E+00 -4.11038279550E+00
 -4.01130359666E+00 -3.91461266386E+00 -3.82025242887E+00 -3.72816671110E+00
 -3.63830068420E+00 -3.55060084337E+00 -3.46501497353E+00 -3.38149211821E+00
 -3.29998254924E+00 -3.22043773713E+00 -3.14281032218E+00 -3.06705408625E+00
 -2.99312392529E+00 -2.92097582248E+00 -2.85056682197E+00 -2.78185500339E+00
 -2.71479945681E+00 -2.64936025842E+00 -2.58549844679E+00 -2.52317599960E+00
 -2.46235581106E+00 -2.40300166982E+00 -2.34507823736E+00 -2.28855102699E+00
 -2.23338638332E+00 -2.17955146221E+00 -2.12701421119E+00 -2.07574335043E+00
 -2.02570835409E+00 -1.97687943211E+00 -1.92922751255E+00 -1.88272422422E+00
 -1.83734187979E+00 -1.79305345934E+00 -1.74983259426E+00 -1.70765355154E+00
 -1.66649121844E+00 -1.62632108758E+00 -1.58711924229E+00 -1.54886234244E+00